n -t * -s 0  -x 0 -y 0 -Z 0 -z 20  -v circle -c black
n -t * -s 1  -x 0 -y 0 -Z 0 -z 20  -v circle -c black
V -t * -v 1.0a5 -a 0
W -t * -x 670 -y 670
A -t * -n 1 -p 0 -o 0xffffffff -c 31 -a 1
A -t * -h 1 -m 2147483647 -s 0
c -t * -i 2 -n Red
n -t 0.000000 -s 0 -x 150.000000 -y 150.000000 -U -3.535534 -V -3.535534 -T 28.284271
n -t 0.000000 -s 1 -x 0.000000 -y 0.000000 -U 8.320503 -V 5.547002 -T 7.211103
+ -t 0.500000000 -s 0 -d -1 -p tcp -e 40 -c 2 -a 0 -i 0 -k AGT 
- -t 0.500000000 -s 0 -d -1 -p tcp -e 40 -c 2 -a 0 -i 0 -k AGT
h -t 0.500000000 -s 0 -d -1 -p tcp -e 40 -c 2 -a 0 -i 0 -k AGT
+ -t 0.500000000 -s 0 -d -1 -p AODV -e 48 -c 2 -a 0 -i 0 -k RTR 
- -t 0.500000000 -s 0 -d -1 -p AODV -e 48 -c 2 -a 0 -i 0 -k RTR
h -t 0.500000000 -s 0 -d -1 -p AODV -e 48 -c 2 -a 0 -i 0 -k RTR
+ -t 0.501375000 -s 0 -d -1 -p AODV -e 48 -c 2 -a 0 -i 0 -k MAC 
- -t 0.501375000 -s 0 -d -1 -p AODV -e 48 -c 2 -a 0 -i 0 -k MAC
h -t 0.501375000 -s 0 -d -1 -p AODV -e 48 -c 2 -a 0 -i 0 -k MAC
r -t 0.501567682 -s 1 -d -1 -p AODV -e 48 -c 2 -a 0 -i 0 -k MAC
r -t 0.501592682 -s 1 -d -1 -p AODV -e 48 -c 2 -a 0 -i 0 -k RTR
+ -t 0.501592682 -s 1 -d 0 -p AODV -e 44 -c 2 -a 0 -i 0 -k RTR 
- -t 0.501592682 -s 1 -d 0 -p AODV -e 44 -c 2 -a 0 -i 0 -k RTR
h -t 0.501592682 -s 1 -d 0 -p AODV -e 44 -c 2 -a 0 -i 0 -k RTR
+ -t 0.503397682 -s 1 -d -1 -p ARP -e 28 -c 2 -a 0 -i 0 -k MAC 
- -t 0.503397682 -s 1 -d -1 -p ARP -e 28 -c 2 -a 0 -i 0 -k MAC
h -t 0.503397682 -s 1 -d -1 -p ARP -e 28 -c 2 -a 0 -i 0 -k MAC
r -t 0.503510365 -s 0 -d -1 -p ARP -e 28 -c 2 -a 0 -i 0 -k MAC
+ -t 0.505265365 -s 0 -d -1 -p ARP -e 28 -c 2 -a 0 -i 0 -k MAC 
- -t 0.505265365 -s 0 -d -1 -p ARP -e 28 -c 2 -a 0 -i 0 -k MAC
h -t 0.505265365 -s 0 -d -1 -p ARP -e 28 -c 2 -a 0 -i 0 -k MAC
r -t 0.505378047 -s 1 -d -1 -p ARP -e 28 -c 2 -a 0 -i 0 -k MAC
+ -t 0.506533047 -s 1 -d 0 -p AODV -e 44 -c 2 -a 0 -i 0 -k MAC 
- -t 0.506533047 -s 1 -d 0 -p AODV -e 44 -c 2 -a 0 -i 0 -k MAC
h -t 0.506533047 -s 1 -d 0 -p AODV -e 44 -c 2 -a 0 -i 0 -k MAC
r -t 0.506709729 -s 0 -d 0 -p AODV -e 44 -c 2 -a 0 -i 0 -k MAC
+ -t 0.506734729 -s 0 -d 1 -p tcp -e 60 -c 2 -a 0 -i 0 -k RTR 
- -t 0.506734729 -s 0 -d 1 -p tcp -e 60 -c 2 -a 0 -i 0 -k RTR
h -t 0.506734729 -s 0 -d 1 -p tcp -e 60 -c 2 -a 0 -i 0 -k RTR
+ -t 0.508159729 -s 0 -d 1 -p tcp -e 60 -c 2 -a 0 -i 0 -k MAC 
- -t 0.508159729 -s 0 -d 1 -p tcp -e 60 -c 2 -a 0 -i 0 -k MAC
h -t 0.508159729 -s 0 -d 1 -p tcp -e 60 -c 2 -a 0 -i 0 -k MAC
r -t 0.508400411 -s 1 -d 1 -p tcp -e 60 -c 2 -a 0 -i 0 -k MAC
r -t 0.508425411 -s 1 -d 1 -p tcp -e 60 -c 2 -a 0 -i 0 -k AGT
+ -t 0.508425411 -s 1 -d -1 -p ack -e 40 -c 2 -a 0 -i 1 -k AGT 
- -t 0.508425411 -s 1 -d -1 -p ack -e 40 -c 2 -a 0 -i 1 -k AGT
h -t 0.508425411 -s 1 -d -1 -p ack -e 40 -c 2 -a 0 -i 1 -k AGT
+ -t 0.508425411 -s 1 -d 0 -p ack -e 60 -c 2 -a 0 -i 1 -k RTR 
- -t 0.508425411 -s 1 -d 0 -p ack -e 60 -c 2 -a 0 -i 1 -k RTR
h -t 0.508425411 -s 1 -d 0 -p ack -e 60 -c 2 -a 0 -i 1 -k RTR
+ -t 0.508800411 -s 1 -d 0 -p ack -e 60 -c 2 -a 0 -i 1 -k MAC 
- -t 0.508800411 -s 1 -d 0 -p ack -e 60 -c 2 -a 0 -i 1 -k MAC
h -t 0.508800411 -s 1 -d 0 -p ack -e 60 -c 2 -a 0 -i 1 -k MAC
r -t 0.509041093 -s 0 -d 0 -p ack -e 60 -c 2 -a 0 -i 1 -k MAC
r -t 0.509066093 -s 0 -d 0 -p ack -e 60 -c 2 -a 0 -i 1 -k AGT
+ -t 0.509066093 -s 0 -d -1 -p tcp -e 1040 -c 2 -a 0 -i 2 -k AGT 
- -t 0.509066093 -s 0 -d -1 -p tcp -e 1040 -c 2 -a 0 -i 2 -k AGT
h -t 0.509066093 -s 0 -d -1 -p tcp -e 1040 -c 2 -a 0 -i 2 -k AGT
+ -t 0.509066093 -s 0 -d -1 -p tcp -e 1040 -c 2 -a 0 -i 3 -k AGT 
- -t 0.509066093 -s 0 -d -1 -p tcp -e 1040 -c 2 -a 0 -i 3 -k AGT
h -t 0.509066093 -s 0 -d -1 -p tcp -e 1040 -c 2 -a 0 -i 3 -k AGT
+ -t 0.509066093 -s 0 -d 1 -p tcp -e 1060 -c 2 -a 0 -i 2 -k RTR 
- -t 0.509066093 -s 0 -d 1 -p tcp -e 1060 -c 2 -a 0 -i 2 -k RTR
h -t 0.509066093 -s 0 -d 1 -p tcp -e 1060 -c 2 -a 0 -i 2 -k RTR
+ -t 0.509066093 -s 0 -d 1 -p tcp -e 1060 -c 2 -a 0 -i 3 -k RTR 
- -t 0.509066093 -s 0 -d 1 -p tcp -e 1060 -c 2 -a 0 -i 3 -k RTR
h -t 0.509066093 -s 0 -d 1 -p tcp -e 1060 -c 2 -a 0 -i 3 -k RTR
+ -t 0.509541093 -s 0 -d 1 -p tcp -e 1060 -c 2 -a 0 -i 2 -k MAC 
- -t 0.509541093 -s 0 -d 1 -p tcp -e 1060 -c 2 -a 0 -i 2 -k MAC
h -t 0.509541093 -s 0 -d 1 -p tcp -e 1060 -c 2 -a 0 -i 2 -k MAC
r -t 0.513781775 -s 1 -d 1 -p tcp -e 1060 -c 2 -a 0 -i 2 -k MAC
r -t 0.513806775 -s 1 -d 1 -p tcp -e 1060 -c 2 -a 0 -i 2 -k AGT
+ -t 0.513806775 -s 1 -d -1 -p ack -e 40 -c 2 -a 0 -i 4 -k AGT 
- -t 0.513806775 -s 1 -d -1 -p ack -e 40 -c 2 -a 0 -i 4 -k AGT
h -t 0.513806775 -s 1 -d -1 -p ack -e 40 -c 2 -a 0 -i 4 -k AGT
+ -t 0.513806775 -s 1 -d 0 -p ack -e 60 -c 2 -a 0 -i 4 -k RTR 
- -t 0.513806775 -s 1 -d 0 -p ack -e 60 -c 2 -a 0 -i 4 -k RTR
h -t 0.513806775 -s 1 -d 0 -p ack -e 60 -c 2 -a 0 -i 4 -k RTR
+ -t 0.514231775 -s 1 -d 0 -p ack -e 60 -c 2 -a 0 -i 4 -k MAC 
- -t 0.514231775 -s 1 -d 0 -p ack -e 60 -c 2 -a 0 -i 4 -k MAC
h -t 0.514231775 -s 1 -d 0 -p ack -e 60 -c 2 -a 0 -i 4 -k MAC
r -t 0.514472457 -s 0 -d 0 -p ack -e 60 -c 2 -a 0 -i 4 -k MAC
r -t 0.514497457 -s 0 -d 0 -p ack -e 60 -c 2 -a 0 -i 4 -k AGT
+ -t 0.514497457 -s 0 -d -1 -p tcp -e 1040 -c 2 -a 0 -i 5 -k AGT 
- -t 0.514497457 -s 0 -d -1 -p tcp -e 1040 -c 2 -a 0 -i 5 -k AGT
h -t 0.514497457 -s 0 -d -1 -p tcp -e 1040 -c 2 -a 0 -i 5 -k AGT
+ -t 0.514497457 -s 0 -d -1 -p tcp -e 1040 -c 2 -a 0 -i 6 -k AGT 
- -t 0.514497457 -s 0 -d -1 -p tcp -e 1040 -c 2 -a 0 -i 6 -k AGT
h -t 0.514497457 -s 0 -d -1 -p tcp -e 1040 -c 2 -a 0 -i 6 -k AGT
+ -t 0.514497457 -s 0 -d 1 -p tcp -e 1060 -c 2 -a 0 -i 5 -k RTR 
- -t 0.514497457 -s 0 -d 1 -p tcp -e 1060 -c 2 -a 0 -i 5 -k RTR
h -t 0.514497457 -s 0 -d 1 -p tcp -e 1060 -c 2 -a 0 -i 5 -k RTR
+ -t 0.514497457 -s 0 -d 1 -p tcp -e 1060 -c 2 -a 0 -i 6 -k RTR 
- -t 0.514497457 -s 0 -d 1 -p tcp -e 1060 -c 2 -a 0 -i 6 -k RTR
h -t 0.514497457 -s 0 -d 1 -p tcp -e 1060 -c 2 -a 0 -i 6 -k RTR
+ -t 0.515031093 -s 0 -d 1 -p tcp -e 1060 -c 2 -a 0 -i 3 -k MAC 
- -t 0.515031093 -s 0 -d 1 -p tcp -e 1060 -c 2 -a 0 -i 3 -k MAC
h -t 0.515031093 -s 0 -d 1 -p tcp -e 1060 -c 2 -a 0 -i 3 -k MAC
r -t 0.519271775 -s 1 -d 1 -p tcp -e 1060 -c 2 -a 0 -i 3 -k MAC
r -t 0.519296775 -s 1 -d 1 -p tcp -e 1060 -c 2 -a 0 -i 3 -k AGT
+ -t 0.519296775 -s 1 -d -1 -p ack -e 40 -c 2 -a 0 -i 7 -k AGT 
- -t 0.519296775 -s 1 -d -1 -p ack -e 40 -c 2 -a 0 -i 7 -k AGT
h -t 0.519296775 -s 1 -d -1 -p ack -e 40 -c 2 -a 0 -i 7 -k AGT
+ -t 0.519296775 -s 1 -d 0 -p ack -e 60 -c 2 -a 0 -i 7 -k RTR 
- -t 0.519296775 -s 1 -d 0 -p ack -e 60 -c 2 -a 0 -i 7 -k RTR
h -t 0.519296775 -s 1 -d 0 -p ack -e 60 -c 2 -a 0 -i 7 -k RTR
+ -t 0.520371093 -s 0 -d 1 -p tcp -e 1060 -c 2 -a 0 -i 5 -k MAC 
- -t 0.520371093 -s 0 -d 1 -p tcp -e 1060 -c 2 -a 0 -i 5 -k MAC
h -t 0.520371093 -s 0 -d 1 -p tcp -e 1060 -c 2 -a 0 -i 5 -k MAC
+ -t 0.521271775 -s 1 -d 0 -p ack -e 60 -c 2 -a 0 -i 7 -k MAC 
- -t 0.521271775 -s 1 -d 0 -p ack -e 60 -c 2 -a 0 -i 7 -k MAC
h -t 0.521271775 -s 1 -d 0 -p ack -e 60 -c 2 -a 0 -i 7 -k MAC
r -t 0.524611774 -s 1 -d 1 -p tcp -e 1060 -c 2 -a 0 -i 5 -k MAC
r -t 0.524636774 -s 1 -d 1 -p tcp -e 1060 -c 2 -a 0 -i 5 -k AGT
+ -t 0.524636774 -s 1 -d -1 -p ack -e 40 -c 2 -a 0 -i 8 -k AGT 
- -t 0.524636774 -s 1 -d -1 -p ack -e 40 -c 2 -a 0 -i 8 -k AGT
h -t 0.524636774 -s 1 -d -1 -p ack -e 40 -c 2 -a 0 -i 8 -k AGT
+ -t 0.524636774 -s 1 -d 0 -p ack -e 60 -c 2 -a 0 -i 8 -k RTR 
- -t 0.524636774 -s 1 -d 0 -p ack -e 60 -c 2 -a 0 -i 8 -k RTR
h -t 0.524636774 -s 1 -d 0 -p ack -e 60 -c 2 -a 0 -i 8 -k RTR
+ -t 0.525261774 -s 1 -d 0 -p ack -e 60 -c 2 -a 0 -i 8 -k MAC 
- -t 0.525261774 -s 1 -d 0 -p ack -e 60 -c 2 -a 0 -i 8 -k MAC
h -t 0.525261774 -s 1 -d 0 -p ack -e 60 -c 2 -a 0 -i 8 -k MAC
+ -t 0.525411093 -s 0 -d 1 -p tcp -e 1060 -c 2 -a 0 -i 6 -k MAC 
- -t 0.525411093 -s 0 -d 1 -p tcp -e 1060 -c 2 -a 0 -i 6 -k MAC
h -t 0.525411093 -s 0 -d 1 -p tcp -e 1060 -c 2 -a 0 -i 6 -k MAC
d -t 0.529651774 -s 1 -d 1 -p tcp -e 1060 -c 2 -a 0 -i 6 -k MAC
+ -t 0.714497457 -s 0 -d -1 -p tcp -e 1040 -c 2 -a 0 -i 9 -k AGT 
- -t 0.714497457 -s 0 -d -1 -p tcp -e 1040 -c 2 -a 0 -i 9 -k AGT
h -t 0.714497457 -s 0 -d -1 -p tcp -e 1040 -c 2 -a 0 -i 9 -k AGT
+ -t 0.714497457 -s 0 -d 1 -p tcp -e 1060 -c 2 -a 0 -i 9 -k RTR 
- -t 0.714497457 -s 0 -d 1 -p tcp -e 1060 -c 2 -a 0 -i 9 -k RTR
h -t 0.714497457 -s 0 -d 1 -p tcp -e 1060 -c 2 -a 0 -i 9 -k RTR
+ -t 0.716072457 -s 0 -d 1 -p tcp -e 1060 -c 2 -a 0 -i 9 -k MAC 
- -t 0.716072457 -s 0 -d 1 -p tcp -e 1060 -c 2 -a 0 -i 9 -k MAC
h -t 0.716072457 -s 0 -d 1 -p tcp -e 1060 -c 2 -a 0 -i 9 -k MAC
r -t 0.720313128 -s 1 -d 1 -p tcp -e 1060 -c 2 -a 0 -i 9 -k MAC
r -t 0.720338128 -s 1 -d 1 -p tcp -e 1060 -c 2 -a 0 -i 9 -k AGT
+ -t 0.720338128 -s 1 -d -1 -p ack -e 40 -c 2 -a 0 -i 10 -k AGT 
- -t 0.720338128 -s 1 -d -1 -p ack -e 40 -c 2 -a 0 -i 10 -k AGT
h -t 0.720338128 -s 1 -d -1 -p ack -e 40 -c 2 -a 0 -i 10 -k AGT
+ -t 0.720338128 -s 1 -d 0 -p ack -e 60 -c 2 -a 0 -i 10 -k RTR 
- -t 0.720338128 -s 1 -d 0 -p ack -e 60 -c 2 -a 0 -i 10 -k RTR
h -t 0.720338128 -s 1 -d 0 -p ack -e 60 -c 2 -a 0 -i 10 -k RTR
+ -t 0.721963128 -s 1 -d 0 -p ack -e 60 -c 2 -a 0 -i 10 -k MAC 
- -t 0.721963128 -s 1 -d 0 -p ack -e 60 -c 2 -a 0 -i 10 -k MAC
h -t 0.721963128 -s 1 -d 0 -p ack -e 60 -c 2 -a 0 -i 10 -k MAC
r -t 0.722203800 -s 0 -d 0 -p ack -e 60 -c 2 -a 0 -i 10 -k MAC
r -t 0.722228800 -s 0 -d 0 -p ack -e 60 -c 2 -a 0 -i 10 -k AGT
+ -t 0.722228800 -s 0 -d -1 -p tcp -e 1040 -c 2 -a 0 -i 11 -k AGT 
- -t 0.722228800 -s 0 -d -1 -p tcp -e 1040 -c 2 -a 0 -i 11 -k AGT
h -t 0.722228800 -s 0 -d -1 -p tcp -e 1040 -c 2 -a 0 -i 11 -k AGT
+ -t 0.722228800 -s 0 -d -1 -p tcp -e 1040 -c 2 -a 0 -i 12 -k AGT 
- -t 0.722228800 -s 0 -d -1 -p tcp -e 1040 -c 2 -a 0 -i 12 -k AGT
h -t 0.722228800 -s 0 -d -1 -p tcp -e 1040 -c 2 -a 0 -i 12 -k AGT
+ -t 0.722228800 -s 0 -d 1 -p tcp -e 1060 -c 2 -a 0 -i 11 -k RTR 
- -t 0.722228800 -s 0 -d 1 -p tcp -e 1060 -c 2 -a 0 -i 11 -k RTR
h -t 0.722228800 -s 0 -d 1 -p tcp -e 1060 -c 2 -a 0 -i 11 -k RTR
+ -t 0.722228800 -s 0 -d 1 -p tcp -e 1060 -c 2 -a 0 -i 12 -k RTR 
- -t 0.722228800 -s 0 -d 1 -p tcp -e 1060 -c 2 -a 0 -i 12 -k RTR
h -t 0.722228800 -s 0 -d 1 -p tcp -e 1060 -c 2 -a 0 -i 12 -k RTR
+ -t 0.722803800 -s 0 -d 1 -p tcp -e 1060 -c 2 -a 0 -i 11 -k MAC 
- -t 0.722803800 -s 0 -d 1 -p tcp -e 1060 -c 2 -a 0 -i 11 -k MAC
h -t 0.722803800 -s 0 -d 1 -p tcp -e 1060 -c 2 -a 0 -i 11 -k MAC
r -t 0.727044471 -s 1 -d 1 -p tcp -e 1060 -c 2 -a 0 -i 11 -k MAC
r -t 0.727069471 -s 1 -d 1 -p tcp -e 1060 -c 2 -a 0 -i 11 -k AGT
+ -t 0.727069471 -s 1 -d -1 -p ack -e 40 -c 2 -a 0 -i 13 -k AGT 
- -t 0.727069471 -s 1 -d -1 -p ack -e 40 -c 2 -a 0 -i 13 -k AGT
h -t 0.727069471 -s 1 -d -1 -p ack -e 40 -c 2 -a 0 -i 13 -k AGT
+ -t 0.727069471 -s 1 -d 0 -p ack -e 60 -c 2 -a 0 -i 13 -k RTR 
- -t 0.727069471 -s 1 -d 0 -p ack -e 60 -c 2 -a 0 -i 13 -k RTR
h -t 0.727069471 -s 1 -d 0 -p ack -e 60 -c 2 -a 0 -i 13 -k RTR
+ -t 0.728294471 -s 1 -d 0 -p ack -e 60 -c 2 -a 0 -i 13 -k MAC 
- -t 0.728294471 -s 1 -d 0 -p ack -e 60 -c 2 -a 0 -i 13 -k MAC
h -t 0.728294471 -s 1 -d 0 -p ack -e 60 -c 2 -a 0 -i 13 -k MAC
r -t 0.728535143 -s 0 -d 0 -p ack -e 60 -c 2 -a 0 -i 13 -k MAC
r -t 0.728560143 -s 0 -d 0 -p ack -e 60 -c 2 -a 0 -i 13 -k AGT
+ -t 0.728560143 -s 0 -d -1 -p tcp -e 1040 -c 2 -a 0 -i 14 -k AGT 
- -t 0.728560143 -s 0 -d -1 -p tcp -e 1040 -c 2 -a 0 -i 14 -k AGT
h -t 0.728560143 -s 0 -d -1 -p tcp -e 1040 -c 2 -a 0 -i 14 -k AGT
+ -t 0.728560143 -s 0 -d 1 -p tcp -e 1060 -c 2 -a 0 -i 14 -k RTR 
- -t 0.728560143 -s 0 -d 1 -p tcp -e 1060 -c 2 -a 0 -i 14 -k RTR
h -t 0.728560143 -s 0 -d 1 -p tcp -e 1060 -c 2 -a 0 -i 14 -k RTR
+ -t 0.728693800 -s 0 -d 1 -p tcp -e 1060 -c 2 -a 0 -i 12 -k MAC 
- -t 0.728693800 -s 0 -d 1 -p tcp -e 1060 -c 2 -a 0 -i 12 -k MAC
h -t 0.728693800 -s 0 -d 1 -p tcp -e 1060 -c 2 -a 0 -i 12 -k MAC
r -t 0.732934471 -s 1 -d 1 -p tcp -e 1060 -c 2 -a 0 -i 12 -k MAC
r -t 0.732959471 -s 1 -d 1 -p tcp -e 1060 -c 2 -a 0 -i 12 -k AGT
+ -t 0.732959471 -s 1 -d -1 -p ack -e 40 -c 2 -a 0 -i 15 -k AGT 
- -t 0.732959471 -s 1 -d -1 -p ack -e 40 -c 2 -a 0 -i 15 -k AGT
h -t 0.732959471 -s 1 -d -1 -p ack -e 40 -c 2 -a 0 -i 15 -k AGT
+ -t 0.732959471 -s 1 -d 0 -p ack -e 60 -c 2 -a 0 -i 15 -k RTR 
- -t 0.732959471 -s 1 -d 0 -p ack -e 60 -c 2 -a 0 -i 15 -k RTR
h -t 0.732959471 -s 1 -d 0 -p ack -e 60 -c 2 -a 0 -i 15 -k RTR
+ -t 0.733433800 -s 0 -d 1 -p tcp -e 1060 -c 2 -a 0 -i 14 -k MAC 
- -t 0.733433800 -s 0 -d 1 -p tcp -e 1060 -c 2 -a 0 -i 14 -k MAC
h -t 0.733433800 -s 0 -d 1 -p tcp -e 1060 -c 2 -a 0 -i 14 -k MAC
+ -t 0.734084471 -s 1 -d 0 -p ack -e 60 -c 2 -a 0 -i 15 -k MAC 
- -t 0.734084471 -s 1 -d 0 -p ack -e 60 -c 2 -a 0 -i 15 -k MAC
h -t 0.734084471 -s 1 -d 0 -p ack -e 60 -c 2 -a 0 -i 15 -k MAC
r -t 0.737674471 -s 1 -d 1 -p tcp -e 1060 -c 2 -a 0 -i 14 -k MAC
r -t 0.737699471 -s 1 -d 1 -p tcp -e 1060 -c 2 -a 0 -i 14 -k AGT
+ -t 0.737699471 -s 1 -d -1 -p ack -e 40 -c 2 -a 0 -i 16 -k AGT 
- -t 0.737699471 -s 1 -d -1 -p ack -e 40 -c 2 -a 0 -i 16 -k AGT
h -t 0.737699471 -s 1 -d -1 -p ack -e 40 -c 2 -a 0 -i 16 -k AGT
+ -t 0.737699471 -s 1 -d 0 -p ack -e 60 -c 2 -a 0 -i 16 -k RTR 
- -t 0.737699471 -s 1 -d 0 -p ack -e 60 -c 2 -a 0 -i 16 -k RTR
h -t 0.737699471 -s 1 -d 0 -p ack -e 60 -c 2 -a 0 -i 16 -k RTR
+ -t 0.738174471 -s 1 -d 0 -p ack -e 60 -c 2 -a 0 -i 16 -k MAC 
- -t 0.738174471 -s 1 -d 0 -p ack -e 60 -c 2 -a 0 -i 16 -k MAC
h -t 0.738174471 -s 1 -d 0 -p ack -e 60 -c 2 -a 0 -i 16 -k MAC
r -t 0.738415142 -s 0 -d 0 -p ack -e 60 -c 2 -a 0 -i 16 -k MAC
r -t 0.738440142 -s 0 -d 0 -p ack -e 60 -c 2 -a 0 -i 16 -k AGT
+ -t 0.738440142 -s 0 -d -1 -p tcp -e 1040 -c 2 -a 0 -i 17 -k AGT 
- -t 0.738440142 -s 0 -d -1 -p tcp -e 1040 -c 2 -a 0 -i 17 -k AGT
h -t 0.738440142 -s 0 -d -1 -p tcp -e 1040 -c 2 -a 0 -i 17 -k AGT
+ -t 0.738440142 -s 0 -d -1 -p tcp -e 1040 -c 2 -a 0 -i 18 -k AGT 
- -t 0.738440142 -s 0 -d -1 -p tcp -e 1040 -c 2 -a 0 -i 18 -k AGT
h -t 0.738440142 -s 0 -d -1 -p tcp -e 1040 -c 2 -a 0 -i 18 -k AGT
+ -t 0.738440142 -s 0 -d 1 -p tcp -e 1060 -c 2 -a 0 -i 17 -k RTR 
- -t 0.738440142 -s 0 -d 1 -p tcp -e 1060 -c 2 -a 0 -i 17 -k RTR
h -t 0.738440142 -s 0 -d 1 -p tcp -e 1060 -c 2 -a 0 -i 17 -k RTR
+ -t 0.738440142 -s 0 -d 1 -p tcp -e 1060 -c 2 -a 0 -i 18 -k RTR 
- -t 0.738440142 -s 0 -d 1 -p tcp -e 1060 -c 2 -a 0 -i 18 -k RTR
h -t 0.738440142 -s 0 -d 1 -p tcp -e 1060 -c 2 -a 0 -i 18 -k RTR
+ -t 0.738915142 -s 0 -d 1 -p tcp -e 1060 -c 2 -a 0 -i 17 -k MAC 
- -t 0.738915142 -s 0 -d 1 -p tcp -e 1060 -c 2 -a 0 -i 17 -k MAC
h -t 0.738915142 -s 0 -d 1 -p tcp -e 1060 -c 2 -a 0 -i 17 -k MAC
r -t 0.743155812 -s 1 -d 1 -p tcp -e 1060 -c 2 -a 0 -i 17 -k MAC
r -t 0.743180812 -s 1 -d 1 -p tcp -e 1060 -c 2 -a 0 -i 17 -k AGT
+ -t 0.743180812 -s 1 -d -1 -p ack -e 40 -c 2 -a 0 -i 19 -k AGT 
- -t 0.743180812 -s 1 -d -1 -p ack -e 40 -c 2 -a 0 -i 19 -k AGT
h -t 0.743180812 -s 1 -d -1 -p ack -e 40 -c 2 -a 0 -i 19 -k AGT
+ -t 0.743180812 -s 1 -d 0 -p ack -e 60 -c 2 -a 0 -i 19 -k RTR 
- -t 0.743180812 -s 1 -d 0 -p ack -e 60 -c 2 -a 0 -i 19 -k RTR
h -t 0.743180812 -s 1 -d 0 -p ack -e 60 -c 2 -a 0 -i 19 -k RTR
+ -t 0.743455142 -s 0 -d 1 -p tcp -e 1060 -c 2 -a 0 -i 18 -k MAC 
- -t 0.743455142 -s 0 -d 1 -p tcp -e 1060 -c 2 -a 0 -i 18 -k MAC
h -t 0.743455142 -s 0 -d 1 -p tcp -e 1060 -c 2 -a 0 -i 18 -k MAC
+ -t 0.743455812 -s 1 -d 0 -p ack -e 60 -c 2 -a 0 -i 19 -k MAC 
- -t 0.743455812 -s 1 -d 0 -p ack -e 60 -c 2 -a 0 -i 19 -k MAC
h -t 0.743455812 -s 1 -d 0 -p ack -e 60 -c 2 -a 0 -i 19 -k MAC
r -t 0.747695812 -s 1 -d 1 -p tcp -e 1060 -c 2 -a 0 -i 18 -k MAC
r -t 0.747720812 -s 1 -d 1 -p tcp -e 1060 -c 2 -a 0 -i 18 -k AGT
+ -t 0.747720812 -s 1 -d -1 -p ack -e 40 -c 2 -a 0 -i 20 -k AGT 
- -t 0.747720812 -s 1 -d -1 -p ack -e 40 -c 2 -a 0 -i 20 -k AGT
h -t 0.747720812 -s 1 -d -1 -p ack -e 40 -c 2 -a 0 -i 20 -k AGT
+ -t 0.747720812 -s 1 -d 0 -p ack -e 60 -c 2 -a 0 -i 20 -k RTR 
- -t 0.747720812 -s 1 -d 0 -p ack -e 60 -c 2 -a 0 -i 20 -k RTR
h -t 0.747720812 -s 1 -d 0 -p ack -e 60 -c 2 -a 0 -i 20 -k RTR
+ -t 0.749295812 -s 1 -d 0 -p ack -e 60 -c 2 -a 0 -i 20 -k MAC 
- -t 0.749295812 -s 1 -d 0 -p ack -e 60 -c 2 -a 0 -i 20 -k MAC
h -t 0.749295812 -s 1 -d 0 -p ack -e 60 -c 2 -a 0 -i 20 -k MAC
r -t 0.749536482 -s 0 -d 0 -p ack -e 60 -c 2 -a 0 -i 20 -k MAC
r -t 0.749561482 -s 0 -d 0 -p ack -e 60 -c 2 -a 0 -i 20 -k AGT
+ -t 0.749561482 -s 0 -d -1 -p tcp -e 1040 -c 2 -a 0 -i 21 -k AGT 
- -t 0.749561482 -s 0 -d -1 -p tcp -e 1040 -c 2 -a 0 -i 21 -k AGT
h -t 0.749561482 -s 0 -d -1 -p tcp -e 1040 -c 2 -a 0 -i 21 -k AGT
+ -t 0.749561482 -s 0 -d -1 -p tcp -e 1040 -c 2 -a 0 -i 22 -k AGT 
- -t 0.749561482 -s 0 -d -1 -p tcp -e 1040 -c 2 -a 0 -i 22 -k AGT
h -t 0.749561482 -s 0 -d -1 -p tcp -e 1040 -c 2 -a 0 -i 22 -k AGT
+ -t 0.749561482 -s 0 -d -1 -p tcp -e 1040 -c 2 -a 0 -i 23 -k AGT 
- -t 0.749561482 -s 0 -d -1 -p tcp -e 1040 -c 2 -a 0 -i 23 -k AGT
h -t 0.749561482 -s 0 -d -1 -p tcp -e 1040 -c 2 -a 0 -i 23 -k AGT
+ -t 0.749561482 -s 0 -d 1 -p tcp -e 1060 -c 2 -a 0 -i 21 -k RTR 
- -t 0.749561482 -s 0 -d 1 -p tcp -e 1060 -c 2 -a 0 -i 21 -k RTR
h -t 0.749561482 -s 0 -d 1 -p tcp -e 1060 -c 2 -a 0 -i 21 -k RTR
+ -t 0.749561482 -s 0 -d 1 -p tcp -e 1060 -c 2 -a 0 -i 22 -k RTR 
- -t 0.749561482 -s 0 -d 1 -p tcp -e 1060 -c 2 -a 0 -i 22 -k RTR
h -t 0.749561482 -s 0 -d 1 -p tcp -e 1060 -c 2 -a 0 -i 22 -k RTR
+ -t 0.749561482 -s 0 -d 1 -p tcp -e 1060 -c 2 -a 0 -i 23 -k RTR 
- -t 0.749561482 -s 0 -d 1 -p tcp -e 1060 -c 2 -a 0 -i 23 -k RTR
h -t 0.749561482 -s 0 -d 1 -p tcp -e 1060 -c 2 -a 0 -i 23 -k RTR
+ -t 0.749636482 -s 0 -d 1 -p tcp -e 1060 -c 2 -a 0 -i 21 -k MAC 
- -t 0.749636482 -s 0 -d 1 -p tcp -e 1060 -c 2 -a 0 -i 21 -k MAC
h -t 0.749636482 -s 0 -d 1 -p tcp -e 1060 -c 2 -a 0 -i 21 -k MAC
r -t 0.753877152 -s 1 -d 1 -p tcp -e 1060 -c 2 -a 0 -i 21 -k MAC
r -t 0.753902152 -s 1 -d 1 -p tcp -e 1060 -c 2 -a 0 -i 21 -k AGT
+ -t 0.753902152 -s 1 -d -1 -p ack -e 40 -c 2 -a 0 -i 24 -k AGT 
- -t 0.753902152 -s 1 -d -1 -p ack -e 40 -c 2 -a 0 -i 24 -k AGT
h -t 0.753902152 -s 1 -d -1 -p ack -e 40 -c 2 -a 0 -i 24 -k AGT
+ -t 0.753902152 -s 1 -d 0 -p ack -e 60 -c 2 -a 0 -i 24 -k RTR 
- -t 0.753902152 -s 1 -d 0 -p ack -e 60 -c 2 -a 0 -i 24 -k RTR
h -t 0.753902152 -s 1 -d 0 -p ack -e 60 -c 2 -a 0 -i 24 -k RTR
+ -t 0.754427152 -s 1 -d 0 -p ack -e 60 -c 2 -a 0 -i 24 -k MAC 
- -t 0.754427152 -s 1 -d 0 -p ack -e 60 -c 2 -a 0 -i 24 -k MAC
h -t 0.754427152 -s 1 -d 0 -p ack -e 60 -c 2 -a 0 -i 24 -k MAC
r -t 0.754667822 -s 0 -d 0 -p ack -e 60 -c 2 -a 0 -i 24 -k MAC
r -t 0.754692822 -s 0 -d 0 -p ack -e 60 -c 2 -a 0 -i 24 -k AGT
+ -t 0.754692822 -s 0 -d -1 -p tcp -e 1040 -c 2 -a 0 -i 25 -k AGT 
- -t 0.754692822 -s 0 -d -1 -p tcp -e 1040 -c 2 -a 0 -i 25 -k AGT
h -t 0.754692822 -s 0 -d -1 -p tcp -e 1040 -c 2 -a 0 -i 25 -k AGT
+ -t 0.754692822 -s 0 -d 1 -p tcp -e 1060 -c 2 -a 0 -i 25 -k RTR 
- -t 0.754692822 -s 0 -d 1 -p tcp -e 1060 -c 2 -a 0 -i 25 -k RTR
h -t 0.754692822 -s 0 -d 1 -p tcp -e 1060 -c 2 -a 0 -i 25 -k RTR
+ -t 0.755326482 -s 0 -d 1 -p tcp -e 1060 -c 2 -a 0 -i 22 -k MAC 
- -t 0.755326482 -s 0 -d 1 -p tcp -e 1060 -c 2 -a 0 -i 22 -k MAC
h -t 0.755326482 -s 0 -d 1 -p tcp -e 1060 -c 2 -a 0 -i 22 -k MAC
r -t 0.759567152 -s 1 -d 1 -p tcp -e 1060 -c 2 -a 0 -i 22 -k MAC
r -t 0.759592152 -s 1 -d 1 -p tcp -e 1060 -c 2 -a 0 -i 22 -k AGT
+ -t 0.759592152 -s 1 -d -1 -p ack -e 40 -c 2 -a 0 -i 26 -k AGT 
- -t 0.759592152 -s 1 -d -1 -p ack -e 40 -c 2 -a 0 -i 26 -k AGT
h -t 0.759592152 -s 1 -d -1 -p ack -e 40 -c 2 -a 0 -i 26 -k AGT
+ -t 0.759592152 -s 1 -d 0 -p ack -e 60 -c 2 -a 0 -i 26 -k RTR 
- -t 0.759592152 -s 1 -d 0 -p ack -e 60 -c 2 -a 0 -i 26 -k RTR
h -t 0.759592152 -s 1 -d 0 -p ack -e 60 -c 2 -a 0 -i 26 -k RTR
+ -t 0.760167152 -s 1 -d 0 -p ack -e 60 -c 2 -a 0 -i 26 -k MAC 
- -t 0.760167152 -s 1 -d 0 -p ack -e 60 -c 2 -a 0 -i 26 -k MAC
h -t 0.760167152 -s 1 -d 0 -p ack -e 60 -c 2 -a 0 -i 26 -k MAC
r -t 0.760407822 -s 0 -d 0 -p ack -e 60 -c 2 -a 0 -i 26 -k MAC
r -t 0.760432822 -s 0 -d 0 -p ack -e 60 -c 2 -a 0 -i 26 -k AGT
+ -t 0.760432822 -s 0 -d -1 -p tcp -e 1040 -c 2 -a 0 -i 27 -k AGT 
- -t 0.760432822 -s 0 -d -1 -p tcp -e 1040 -c 2 -a 0 -i 27 -k AGT
h -t 0.760432822 -s 0 -d -1 -p tcp -e 1040 -c 2 -a 0 -i 27 -k AGT
+ -t 0.760432822 -s 0 -d 1 -p tcp -e 1060 -c 2 -a 0 -i 27 -k RTR 
- -t 0.760432822 -s 0 -d 1 -p tcp -e 1060 -c 2 -a 0 -i 27 -k RTR
h -t 0.760432822 -s 0 -d 1 -p tcp -e 1060 -c 2 -a 0 -i 27 -k RTR
+ -t 0.760966482 -s 0 -d 1 -p tcp -e 1060 -c 2 -a 0 -i 23 -k MAC 
- -t 0.760966482 -s 0 -d 1 -p tcp -e 1060 -c 2 -a 0 -i 23 -k MAC
h -t 0.760966482 -s 0 -d 1 -p tcp -e 1060 -c 2 -a 0 -i 23 -k MAC
r -t 0.765207152 -s 1 -d 1 -p tcp -e 1060 -c 2 -a 0 -i 23 -k MAC
r -t 0.765232152 -s 1 -d 1 -p tcp -e 1060 -c 2 -a 0 -i 23 -k AGT
+ -t 0.765232152 -s 1 -d -1 -p ack -e 40 -c 2 -a 0 -i 28 -k AGT 
- -t 0.765232152 -s 1 -d -1 -p ack -e 40 -c 2 -a 0 -i 28 -k AGT
h -t 0.765232152 -s 1 -d -1 -p ack -e 40 -c 2 -a 0 -i 28 -k AGT
+ -t 0.765232152 -s 1 -d 0 -p ack -e 60 -c 2 -a 0 -i 28 -k RTR 
- -t 0.765232152 -s 1 -d 0 -p ack -e 60 -c 2 -a 0 -i 28 -k RTR
h -t 0.765232152 -s 1 -d 0 -p ack -e 60 -c 2 -a 0 -i 28 -k RTR
+ -t 0.765356482 -s 0 -d 1 -p tcp -e 1060 -c 2 -a 0 -i 25 -k MAC 
- -t 0.765356482 -s 0 -d 1 -p tcp -e 1060 -c 2 -a 0 -i 25 -k MAC
h -t 0.765356482 -s 0 -d 1 -p tcp -e 1060 -c 2 -a 0 -i 25 -k MAC
+ -t 0.766207152 -s 1 -d 0 -p ack -e 60 -c 2 -a 0 -i 28 -k MAC 
- -t 0.766207152 -s 1 -d 0 -p ack -e 60 -c 2 -a 0 -i 28 -k MAC
h -t 0.766207152 -s 1 -d 0 -p ack -e 60 -c 2 -a 0 -i 28 -k MAC
r -t 0.769597152 -s 1 -d 1 -p tcp -e 1060 -c 2 -a 0 -i 25 -k MAC
r -t 0.769622152 -s 1 -d 1 -p tcp -e 1060 -c 2 -a 0 -i 25 -k AGT
+ -t 0.769622152 -s 1 -d -1 -p ack -e 40 -c 2 -a 0 -i 29 -k AGT 
- -t 0.769622152 -s 1 -d -1 -p ack -e 40 -c 2 -a 0 -i 29 -k AGT
h -t 0.769622152 -s 1 -d -1 -p ack -e 40 -c 2 -a 0 -i 29 -k AGT
+ -t 0.769622152 -s 1 -d 0 -p ack -e 60 -c 2 -a 0 -i 29 -k RTR 
- -t 0.769622152 -s 1 -d 0 -p ack -e 60 -c 2 -a 0 -i 29 -k RTR
h -t 0.769622152 -s 1 -d 0 -p ack -e 60 -c 2 -a 0 -i 29 -k RTR
+ -t 0.769846482 -s 0 -d 1 -p tcp -e 1060 -c 2 -a 0 -i 27 -k MAC 
- -t 0.769846482 -s 0 -d 1 -p tcp -e 1060 -c 2 -a 0 -i 27 -k MAC
h -t 0.769846482 -s 0 -d 1 -p tcp -e 1060 -c 2 -a 0 -i 27 -k MAC
+ -t 0.771497152 -s 1 -d 0 -p ack -e 60 -c 2 -a 0 -i 29 -k MAC 
- -t 0.771497152 -s 1 -d 0 -p ack -e 60 -c 2 -a 0 -i 29 -k MAC
h -t 0.771497152 -s 1 -d 0 -p ack -e 60 -c 2 -a 0 -i 29 -k MAC
r -t 0.774087151 -s 1 -d 1 -p tcp -e 1060 -c 2 -a 0 -i 27 -k MAC
r -t 0.774112151 -s 1 -d 1 -p tcp -e 1060 -c 2 -a 0 -i 27 -k AGT
+ -t 0.774112151 -s 1 -d -1 -p ack -e 40 -c 2 -a 0 -i 30 -k AGT 
- -t 0.774112151 -s 1 -d -1 -p ack -e 40 -c 2 -a 0 -i 30 -k AGT
h -t 0.774112151 -s 1 -d -1 -p ack -e 40 -c 2 -a 0 -i 30 -k AGT
+ -t 0.774112151 -s 1 -d 0 -p ack -e 60 -c 2 -a 0 -i 30 -k RTR 
- -t 0.774112151 -s 1 -d 0 -p ack -e 60 -c 2 -a 0 -i 30 -k RTR
h -t 0.774112151 -s 1 -d 0 -p ack -e 60 -c 2 -a 0 -i 30 -k RTR
+ -t 0.775487151 -s 1 -d 0 -p ack -e 60 -c 2 -a 0 -i 30 -k MAC 
- -t 0.775487151 -s 1 -d 0 -p ack -e 60 -c 2 -a 0 -i 30 -k MAC
h -t 0.775487151 -s 1 -d 0 -p ack -e 60 -c 2 -a 0 -i 30 -k MAC
r -t 0.775727820 -s 0 -d 0 -p ack -e 60 -c 2 -a 0 -i 30 -k MAC
r -t 0.775752820 -s 0 -d 0 -p ack -e 60 -c 2 -a 0 -i 30 -k AGT
+ -t 0.775752820 -s 0 -d -1 -p tcp -e 1040 -c 2 -a 0 -i 31 -k AGT 
- -t 0.775752820 -s 0 -d -1 -p tcp -e 1040 -c 2 -a 0 -i 31 -k AGT
h -t 0.775752820 -s 0 -d -1 -p tcp -e 1040 -c 2 -a 0 -i 31 -k AGT
+ -t 0.775752820 -s 0 -d -1 -p tcp -e 1040 -c 2 -a 0 -i 32 -k AGT 
- -t 0.775752820 -s 0 -d -1 -p tcp -e 1040 -c 2 -a 0 -i 32 -k AGT
h -t 0.775752820 -s 0 -d -1 -p tcp -e 1040 -c 2 -a 0 -i 32 -k AGT
+ -t 0.775752820 -s 0 -d -1 -p tcp -e 1040 -c 2 -a 0 -i 33 -k AGT 
- -t 0.775752820 -s 0 -d -1 -p tcp -e 1040 -c 2 -a 0 -i 33 -k AGT
h -t 0.775752820 -s 0 -d -1 -p tcp -e 1040 -c 2 -a 0 -i 33 -k AGT
+ -t 0.775752820 -s 0 -d -1 -p tcp -e 1040 -c 2 -a 0 -i 34 -k AGT 
- -t 0.775752820 -s 0 -d -1 -p tcp -e 1040 -c 2 -a 0 -i 34 -k AGT
h -t 0.775752820 -s 0 -d -1 -p tcp -e 1040 -c 2 -a 0 -i 34 -k AGT
+ -t 0.775752820 -s 0 -d 1 -p tcp -e 1060 -c 2 -a 0 -i 31 -k RTR 
- -t 0.775752820 -s 0 -d 1 -p tcp -e 1060 -c 2 -a 0 -i 31 -k RTR
h -t 0.775752820 -s 0 -d 1 -p tcp -e 1060 -c 2 -a 0 -i 31 -k RTR
+ -t 0.775752820 -s 0 -d 1 -p tcp -e 1060 -c 2 -a 0 -i 32 -k RTR 
- -t 0.775752820 -s 0 -d 1 -p tcp -e 1060 -c 2 -a 0 -i 32 -k RTR
h -t 0.775752820 -s 0 -d 1 -p tcp -e 1060 -c 2 -a 0 -i 32 -k RTR
+ -t 0.775752820 -s 0 -d 1 -p tcp -e 1060 -c 2 -a 0 -i 33 -k RTR 
- -t 0.775752820 -s 0 -d 1 -p tcp -e 1060 -c 2 -a 0 -i 33 -k RTR
h -t 0.775752820 -s 0 -d 1 -p tcp -e 1060 -c 2 -a 0 -i 33 -k RTR
+ -t 0.775752820 -s 0 -d 1 -p tcp -e 1060 -c 2 -a 0 -i 34 -k RTR 
- -t 0.775752820 -s 0 -d 1 -p tcp -e 1060 -c 2 -a 0 -i 34 -k RTR
h -t 0.775752820 -s 0 -d 1 -p tcp -e 1060 -c 2 -a 0 -i 34 -k RTR
+ -t 0.776377820 -s 0 -d 1 -p tcp -e 1060 -c 2 -a 0 -i 31 -k MAC 
- -t 0.776377820 -s 0 -d 1 -p tcp -e 1060 -c 2 -a 0 -i 31 -k MAC
h -t 0.776377820 -s 0 -d 1 -p tcp -e 1060 -c 2 -a 0 -i 31 -k MAC
r -t 0.780618489 -s 1 -d 1 -p tcp -e 1060 -c 2 -a 0 -i 31 -k MAC
r -t 0.780643489 -s 1 -d 1 -p tcp -e 1060 -c 2 -a 0 -i 31 -k AGT
+ -t 0.780643489 -s 1 -d -1 -p ack -e 40 -c 2 -a 0 -i 35 -k AGT 
- -t 0.780643489 -s 1 -d -1 -p ack -e 40 -c 2 -a 0 -i 35 -k AGT
h -t 0.780643489 -s 1 -d -1 -p ack -e 40 -c 2 -a 0 -i 35 -k AGT
+ -t 0.780643489 -s 1 -d 0 -p ack -e 60 -c 2 -a 0 -i 35 -k RTR 
- -t 0.780643489 -s 1 -d 0 -p ack -e 60 -c 2 -a 0 -i 35 -k RTR
h -t 0.780643489 -s 1 -d 0 -p ack -e 60 -c 2 -a 0 -i 35 -k RTR
+ -t 0.781467820 -s 0 -d 1 -p tcp -e 1060 -c 2 -a 0 -i 32 -k MAC 
- -t 0.781467820 -s 0 -d 1 -p tcp -e 1060 -c 2 -a 0 -i 32 -k MAC
h -t 0.781467820 -s 0 -d 1 -p tcp -e 1060 -c 2 -a 0 -i 32 -k MAC
+ -t 0.782268489 -s 1 -d 0 -p ack -e 60 -c 2 -a 0 -i 35 -k MAC 
- -t 0.782268489 -s 1 -d 0 -p ack -e 60 -c 2 -a 0 -i 35 -k MAC
h -t 0.782268489 -s 1 -d 0 -p ack -e 60 -c 2 -a 0 -i 35 -k MAC
r -t 0.785708489 -s 1 -d 1 -p tcp -e 1060 -c 2 -a 0 -i 32 -k MAC
r -t 0.785733489 -s 1 -d 1 -p tcp -e 1060 -c 2 -a 0 -i 32 -k AGT
+ -t 0.785733489 -s 1 -d -1 -p ack -e 40 -c 2 -a 0 -i 36 -k AGT 
- -t 0.785733489 -s 1 -d -1 -p ack -e 40 -c 2 -a 0 -i 36 -k AGT
h -t 0.785733489 -s 1 -d -1 -p ack -e 40 -c 2 -a 0 -i 36 -k AGT
+ -t 0.785733489 -s 1 -d 0 -p ack -e 60 -c 2 -a 0 -i 36 -k RTR 
- -t 0.785733489 -s 1 -d 0 -p ack -e 60 -c 2 -a 0 -i 36 -k RTR
h -t 0.785733489 -s 1 -d 0 -p ack -e 60 -c 2 -a 0 -i 36 -k RTR
+ -t 0.786857820 -s 0 -d 1 -p tcp -e 1060 -c 2 -a 0 -i 33 -k MAC 
- -t 0.786857820 -s 0 -d 1 -p tcp -e 1060 -c 2 -a 0 -i 33 -k MAC
h -t 0.786857820 -s 0 -d 1 -p tcp -e 1060 -c 2 -a 0 -i 33 -k MAC
+ -t 0.787408489 -s 1 -d 0 -p ack -e 60 -c 2 -a 0 -i 36 -k MAC 
- -t 0.787408489 -s 1 -d 0 -p ack -e 60 -c 2 -a 0 -i 36 -k MAC
h -t 0.787408489 -s 1 -d 0 -p ack -e 60 -c 2 -a 0 -i 36 -k MAC
r -t 0.791098488 -s 1 -d 1 -p tcp -e 1060 -c 2 -a 0 -i 33 -k MAC
r -t 0.791123488 -s 1 -d 1 -p tcp -e 1060 -c 2 -a 0 -i 33 -k AGT
+ -t 0.791123488 -s 1 -d -1 -p ack -e 40 -c 2 -a 0 -i 37 -k AGT 
- -t 0.791123488 -s 1 -d -1 -p ack -e 40 -c 2 -a 0 -i 37 -k AGT
h -t 0.791123488 -s 1 -d -1 -p ack -e 40 -c 2 -a 0 -i 37 -k AGT
+ -t 0.791123488 -s 1 -d 0 -p ack -e 60 -c 2 -a 0 -i 37 -k RTR 
- -t 0.791123488 -s 1 -d 0 -p ack -e 60 -c 2 -a 0 -i 37 -k RTR
h -t 0.791123488 -s 1 -d 0 -p ack -e 60 -c 2 -a 0 -i 37 -k RTR
+ -t 0.792048488 -s 1 -d 0 -p ack -e 60 -c 2 -a 0 -i 37 -k MAC 
- -t 0.792048488 -s 1 -d 0 -p ack -e 60 -c 2 -a 0 -i 37 -k MAC
h -t 0.792048488 -s 1 -d 0 -p ack -e 60 -c 2 -a 0 -i 37 -k MAC
r -t 0.792289156 -s 0 -d 0 -p ack -e 60 -c 2 -a 0 -i 37 -k MAC
r -t 0.792314156 -s 0 -d 0 -p ack -e 60 -c 2 -a 0 -i 37 -k AGT
+ -t 0.792314156 -s 0 -d -1 -p tcp -e 1040 -c 2 -a 0 -i 38 -k AGT 
- -t 0.792314156 -s 0 -d -1 -p tcp -e 1040 -c 2 -a 0 -i 38 -k AGT
h -t 0.792314156 -s 0 -d -1 -p tcp -e 1040 -c 2 -a 0 -i 38 -k AGT
+ -t 0.792314156 -s 0 -d -1 -p tcp -e 1040 -c 2 -a 0 -i 39 -k AGT 
- -t 0.792314156 -s 0 -d -1 -p tcp -e 1040 -c 2 -a 0 -i 39 -k AGT
h -t 0.792314156 -s 0 -d -1 -p tcp -e 1040 -c 2 -a 0 -i 39 -k AGT
+ -t 0.792314156 -s 0 -d -1 -p tcp -e 1040 -c 2 -a 0 -i 40 -k AGT 
- -t 0.792314156 -s 0 -d -1 -p tcp -e 1040 -c 2 -a 0 -i 40 -k AGT
h -t 0.792314156 -s 0 -d -1 -p tcp -e 1040 -c 2 -a 0 -i 40 -k AGT
+ -t 0.792314156 -s 0 -d 1 -p tcp -e 1060 -c 2 -a 0 -i 38 -k RTR 
- -t 0.792314156 -s 0 -d 1 -p tcp -e 1060 -c 2 -a 0 -i 38 -k RTR
h -t 0.792314156 -s 0 -d 1 -p tcp -e 1060 -c 2 -a 0 -i 38 -k RTR
+ -t 0.792314156 -s 0 -d 1 -p tcp -e 1060 -c 2 -a 0 -i 39 -k RTR 
- -t 0.792314156 -s 0 -d 1 -p tcp -e 1060 -c 2 -a 0 -i 39 -k RTR
h -t 0.792314156 -s 0 -d 1 -p tcp -e 1060 -c 2 -a 0 -i 39 -k RTR
+ -t 0.792314156 -s 0 -d 1 -p tcp -e 1060 -c 2 -a 0 -i 40 -k RTR 
- -t 0.792314156 -s 0 -d 1 -p tcp -e 1060 -c 2 -a 0 -i 40 -k RTR
h -t 0.792314156 -s 0 -d 1 -p tcp -e 1060 -c 2 -a 0 -i 40 -k RTR
+ -t 0.792647820 -s 0 -d 1 -p tcp -e 1060 -c 2 -a 0 -i 34 -k MAC 
- -t 0.792647820 -s 0 -d 1 -p tcp -e 1060 -c 2 -a 0 -i 34 -k MAC
h -t 0.792647820 -s 0 -d 1 -p tcp -e 1060 -c 2 -a 0 -i 34 -k MAC
r -t 0.796888488 -s 1 -d 1 -p tcp -e 1060 -c 2 -a 0 -i 34 -k MAC
r -t 0.796913488 -s 1 -d 1 -p tcp -e 1060 -c 2 -a 0 -i 34 -k AGT
+ -t 0.796913488 -s 1 -d -1 -p ack -e 40 -c 2 -a 0 -i 41 -k AGT 
- -t 0.796913488 -s 1 -d -1 -p ack -e 40 -c 2 -a 0 -i 41 -k AGT
h -t 0.796913488 -s 1 -d -1 -p ack -e 40 -c 2 -a 0 -i 41 -k AGT
+ -t 0.796913488 -s 1 -d 0 -p ack -e 60 -c 2 -a 0 -i 41 -k RTR 
- -t 0.796913488 -s 1 -d 0 -p ack -e 60 -c 2 -a 0 -i 41 -k RTR
h -t 0.796913488 -s 1 -d 0 -p ack -e 60 -c 2 -a 0 -i 41 -k RTR
+ -t 0.797237820 -s 0 -d 1 -p tcp -e 1060 -c 2 -a 0 -i 38 -k MAC 
- -t 0.797237820 -s 0 -d 1 -p tcp -e 1060 -c 2 -a 0 -i 38 -k MAC
h -t 0.797237820 -s 0 -d 1 -p tcp -e 1060 -c 2 -a 0 -i 38 -k MAC
+ -t 0.797388488 -s 1 -d 0 -p ack -e 60 -c 2 -a 0 -i 41 -k MAC 
- -t 0.797388488 -s 1 -d 0 -p ack -e 60 -c 2 -a 0 -i 41 -k MAC
h -t 0.797388488 -s 1 -d 0 -p ack -e 60 -c 2 -a 0 -i 41 -k MAC
r -t 0.801478488 -s 1 -d 1 -p tcp -e 1060 -c 2 -a 0 -i 38 -k MAC
r -t 0.801503488 -s 1 -d 1 -p tcp -e 1060 -c 2 -a 0 -i 38 -k AGT
+ -t 0.801503488 -s 1 -d -1 -p ack -e 40 -c 2 -a 0 -i 42 -k AGT 
- -t 0.801503488 -s 1 -d -1 -p ack -e 40 -c 2 -a 0 -i 42 -k AGT
h -t 0.801503488 -s 1 -d -1 -p ack -e 40 -c 2 -a 0 -i 42 -k AGT