M 0.00000 0 (150.00, 150.00, 0.00), (50.00, 50.00), 5.00
M 0.00000 1 (0.00, 0.00, 0.00), (60.00, 40.00), 10.00
s -t 0.500000000 -Hs 0 -Hd -2 -Ni 0 -Nx 148.23 -Ny 148.23 -Nz 0.00 -Ne -1.000000 -Nl AGT -Nw --- -Ma 0 -Md 0 -Ms 0 -Mt 0 -Is 0.0 -Id 1.0 -It tcp -Il 40 -If 2 -Ii 0 -Iv 32 -Pn tcp -Ps 0 -Pa 0 -Pf 0 -Po 0 
r -t 0.500000000 -Hs 0 -Hd -2 -Ni 0 -Nx 148.23 -Ny 148.23 -Nz 0.00 -Ne -1.000000 -Nl RTR -Nw --- -Ma 0 -Md 0 -Ms 0 -Mt 0 -Is 0.0 -Id 1.0 -It tcp -Il 40 -If 2 -Ii 0 -Iv 32 -Pn tcp -Ps 0 -Pa 0 -Pf 0 -Po 0 
s -t 0.500000000 -Hs 0 -Hd -2 -Ni 0 -Nx 148.23 -Ny 148.23 -Nz 0.00 -Ne -1.000000 -Nl RTR -Nw --- -Ma 0 -Md 0 -Ms 0 -Mt 0 -Is 0.255 -Id -1.255 -It AODV -Il 48 -If 0 -Ii 0 -Iv 30 -P aodv -Pt 0x2 -Ph 1 -Pb 1 -Pd 1 -Pds 0 -Ps 0 -Pss 4 -Pc REQUEST 
s -t 0.501375000 -Hs 0 -Hd -2 -Ni 0 -Nx 148.23 -Ny 148.23 -Nz 0.00 -Ne -1.000000 -Nl MAC -Nw --- -Ma 0 -Md 0 -Ms ffff0008 -Mt 0 -Is 0.255 -Id -1.255 -It AODV -Il 48 -If 0 -Ii 0 -Iv 30 -P aodv -Pt 0x2 -Ph 1 -Pb 1 -Pd 1 -Pds 0 -Ps 0 -Pss 4 -Pc REQUEST 
r -t 0.501567682 -Hs 1 -Hd -2 -Ni 1 -Nx 4.17 -Ny 2.78 -Nz 0.00 -Ne -1.000000 -Nl MAC -Nw --- -Ma 0 -Md 0 -Ms ffff0008 -Mt 0 -Is 0.255 -Id -1.255 -It AODV -Il 48 -If 0 -Ii 0 -Iv 30 -P aodv -Pt 0x2 -Ph 1 -Pb 1 -Pd 1 -Pds 0 -Ps 0 -Pss 4 -Pc REQUEST 
r -t 0.501592682 -Hs 1 -Hd -2 -Ni 1 -Nx 4.17 -Ny 2.78 -Nz 0.00 -Ne -1.000000 -Nl RTR -Nw --- -Ma 0 -Md 0 -Ms ffff0008 -Mt 0 -Is 0.255 -Id -1.255 -It AODV -Il 48 -If 0 -Ii 0 -Iv 30 -P aodv -Pt 0x2 -Ph 1 -Pb 1 -Pd 1 -Pds 0 -Ps 0 -Pss 4 -Pc REQUEST 
s -t 0.501592682 -Hs 1 -Hd 0 -Ni 1 -Nx 4.17 -Ny 2.78 -Nz 0.00 -Ne -1.000000 -Nl RTR -Nw --- -Ma 0 -Md 0 -Ms 0 -Mt 0 -Is 1.255 -Id 0.255 -It AODV -Il 44 -If 0 -Ii 0 -Iv 30 -P aodv -Pt 0x4 -Ph 1 -Pd 1 -Pds 4 -Pl 10.000000 -Pc REPLY 
s -t 0.503397682 -Hs 1 -Hd -2 -Ni 1 -Nx 4.19 -Ny 2.79 -Nz 0.00 -Ne -1.000000 -Nl MAC -Nw --- -Ma 0 -Md 1000000 -Ms ffff0608 -Mt 0 -P arp -Po REQUEST -Pms 1 -Ps 1 -Pmd 0 -Pd 0 
r -t 0.503510365 -Hs 0 -Hd -2 -Ni 0 -Nx 148.22 -Ny 148.22 -Nz 0.00 -Ne -1.000000 -Nl MAC -Nw --- -Ma 0 -Md 1000000 -Ms ffff0608 -Mt 0 -P arp -Po REQUEST -Pms 1 -Ps 1 -Pmd 0 -Pd 0 
s -t 0.505265365 -Hs 0 -Hd -2 -Ni 0 -Nx 148.21 -Ny 148.21 -Nz 0.00 -Ne -1.000000 -Nl MAC -Nw --- -Ma 0 -Md 0 -Ms 608 -Mt 0 -P arp -Po REPLY -Pms 0 -Ps 0 -Pmd 1 -Pd 1 
r -t 0.505378047 -Hs 1 -Hd -2 -Ni 1 -Nx 4.20 -Ny 2.80 -Nz 0.00 -Ne -1.000000 -Nl MAC -Nw --- -Ma 0 -Md 0 -Ms 608 -Mt 0 -P arp -Po REPLY -Pms 0 -Ps 0 -Pmd 1 -Pd 1 
s -t 0.506533047 -Hs 1 -Hd 0 -Ni 1 -Nx 4.21 -Ny 2.81 -Nz 0.00 -Ne -1.000000 -Nl MAC -Nw --- -Ma 0 -Md 1000000 -Ms 8 -Mt 0 -Is 1.255 -Id 0.255 -It AODV -Il 44 -If 0 -Ii 0 -Iv 30 -P aodv -Pt 0x4 -Ph 1 -Pd 1 -Pds 4 -Pl 10.000000 -Pc REPLY 
r -t 0.506709729 -Hs 0 -Hd 0 -Ni 0 -Nx 148.21 -Ny 148.21 -Nz 0.00 -Ne -1.000000 -Nl MAC -Nw --- -Ma 0 -Md 1000000 -Ms 8 -Mt 0 -Is 1.255 -Id 0.255 -It AODV -Il 44 -If 0 -Ii 0 -Iv 30 -P aodv -Pt 0x4 -Ph 1 -Pd 1 -Pds 4 -Pl 10.000000 -Pc REPLY 
r -t 0.506734729 -Hs 0 -Hd 0 -Ni 0 -Nx 148.21 -Ny 148.21 -Nz 0.00 -Ne -1.000000 -Nl RTR -Nw --- -Ma 0 -Md 1000000 -Ms 8 -Mt 0 -Is 1.255 -Id 0.255 -It AODV -Il 44 -If 0 -Ii 0 -Iv 30 -P aodv -Pt 0x4 -Ph 1 -Pd 1 -Pds 4 -Pl 10.000000 -Pc REPLY 
s -t 0.506734729 -Hs 0 -Hd 1 -Ni 0 -Nx 148.21 -Ny 148.21 -Nz 0.00 -Ne -1.000000 -Nl RTR -Nw --- -Ma 0 -Md 0 -Ms 0 -Mt 0 -Is 0.0 -Id 1.0 -It tcp -Il 60 -If 2 -Ii 0 -Iv 30 -Pn tcp -Ps 0 -Pa 0 -Pf 0 -Po 0 
s -t 0.508159729 -Hs 0 -Hd 1 -Ni 0 -Nx 148.20 -Ny 148.20 -Nz 0.00 -Ne -1.000000 -Nl MAC -Nw --- -Ma 0 -Md 0 -Ms 8 -Mt 0 -Is 0.0 -Id 1.0 -It tcp -Il 60 -If 2 -Ii 0 -Iv 30 -Pn tcp -Ps 0 -Pa 0 -Pf 0 -Po 0 
r -t 0.508400411 -Hs 1 -Hd 1 -Ni 1 -Nx 4.23 -Ny 2.82 -Nz 0.00 -Ne -1.000000 -Nl MAC -Nw --- -Ma 0 -Md 0 -Ms 8 -Mt 0 -Is 0.0 -Id 1.0 -It tcp -Il 60 -If 2 -Ii 0 -Iv 30 -Pn tcp -Ps 0 -Pa 0 -Pf 0 -Po 0 
r -t 0.508425411 -Hs 1 -Hd 1 -Ni 1 -Nx 4.23 -Ny 2.82 -Nz 0.00 -Ne -1.000000 -Nl AGT -Nw --- -Ma 0 -Md 0 -Ms 8 -Mt 0 -Is 0.0 -Id 1.0 -It tcp -Il 60 -If 2 -Ii 0 -Iv 30 -Pn tcp -Ps 0 -Pa 0 -Pf 0 -Po 0 
s -t 0.508425411 -Hs 1 -Hd -2 -Ni 1 -Nx 4.23 -Ny 2.82 -Nz 0.00 -Ne -1.000000 -Nl AGT -Nw --- -Ma 0 -Md 0 -Ms 0 -Mt 0 -Is 1.0 -Id 0.0 -It ack -Il 40 -If 2 -Ii 1 -Iv 32 -Pn tcp -Ps 0 -Pa 0 -Pf 0 -Po 0 
r -t 0.508425411 -Hs 1 -Hd -2 -Ni 1 -Nx 4.23 -Ny 2.82 -Nz 0.00 -Ne -1.000000 -Nl RTR -Nw --- -Ma 0 -Md 0 -Ms 0 -Mt 0 -Is 1.0 -Id 0.0 -It ack -Il 40 -If 2 -Ii 1 -Iv 32 -Pn tcp -Ps 0 -Pa 0 -Pf 0 -Po 0 
s -t 0.508425411 -Hs 1 -Hd 0 -Ni 1 -Nx 4.23 -Ny 2.82 -Nz 0.00 -Ne -1.000000 -Nl RTR -Nw --- -Ma 0 -Md 0 -Ms 0 -Mt 0 -Is 1.0 -Id 0.0 -It ack -Il 60 -If 2 -Ii 1 -Iv 30 -Pn tcp -Ps 0 -Pa 0 -Pf 0 -Po 0 
s -t 0.508800411 -Hs 1 -Hd 0 -Ni 1 -Nx 4.23 -Ny 2.82 -Nz 0.00 -Ne -1.000000 -Nl MAC -Nw --- -Ma 0 -Md 1000000 -Ms 8 -Mt 0 -Is 1.0 -Id 0.0 -It ack -Il 60 -If 2 -Ii 1 -Iv 30 -Pn tcp -Ps 0 -Pa 0 -Pf 0 -Po 0 
r -t 0.509041093 -Hs 0 -Hd 0 -Ni 0 -Nx 148.20 -Ny 148.20 -Nz 0.00 -Ne -1.000000 -Nl MAC -Nw --- -Ma 0 -Md 1000000 -Ms 8 -Mt 0 -Is 1.0 -Id 0.0 -It ack -Il 60 -If 2 -Ii 1 -Iv 30 -Pn tcp -Ps 0 -Pa 0 -Pf 0 -Po 0 
r -t 0.509066093 -Hs 0 -Hd 0 -Ni 0 -Nx 148.20 -Ny 148.20 -Nz 0.00 -Ne -1.000000 -Nl AGT -Nw --- -Ma 0 -Md 1000000 -Ms 8 -Mt 0 -Is 1.0 -Id 0.0 -It ack -Il 60 -If 2 -Ii 1 -Iv 30 -Pn tcp -Ps 0 -Pa 0 -Pf 0 -Po 0 
s -t 0.509066093 -Hs 0 -Hd -2 -Ni 0 -Nx 148.20 -Ny 148.20 -Nz 0.00 -Ne -1.000000 -Nl AGT -Nw --- -Ma 0 -Md 0 -Ms 0 -Mt 0 -Is 0.0 -Id 1.0 -It tcp -Il 1040 -If 2 -Ii 2 -Iv 32 -Pn tcp -Ps 1 -Pa 0 -Pf 0 -Po 0 
r -t 0.509066093 -Hs 0 -Hd -2 -Ni 0 -Nx 148.20 -Ny 148.20 -Nz 0.00 -Ne -1.000000 -Nl RTR -Nw --- -Ma 0 -Md 0 -Ms 0 -Mt 0 -Is 0.0 -Id 1.0 -It tcp -Il 1040 -If 2 -Ii 2 -Iv 32 -Pn tcp -Ps 1 -Pa 0 -Pf 0 -Po 0 
s -t 0.509066093 -Hs 0 -Hd -2 -Ni 0 -Nx 148.20 -Ny 148.20 -Nz 0.00 -Ne -1.000000 -Nl AGT -Nw --- -Ma 0 -Md 0 -Ms 0 -Mt 0 -Is 0.0 -Id 1.0 -It tcp -Il 1040 -If 2 -Ii 3 -Iv 32 -Pn tcp -Ps 2 -Pa 0 -Pf 0 -Po 0 
r -t 0.509066093 -Hs 0 -Hd -2 -Ni 0 -Nx 148.20 -Ny 148.20 -Nz 0.00 -Ne -1.000000 -Nl RTR -Nw --- -Ma 0 -Md 0 -Ms 0 -Mt 0 -Is 0.0 -Id 1.0 -It tcp -Il 1040 -If 2 -Ii 3 -Iv 32 -Pn tcp -Ps 2 -Pa 0 -Pf 0 -Po 0 
s -t 0.509066093 -Hs 0 -Hd 1 -Ni 0 -Nx 148.20 -Ny 148.20 -Nz 0.00 -Ne -1.000000 -Nl RTR -Nw --- -Ma 0 -Md 0 -Ms 0 -Mt 0 -Is 0.0 -Id 1.0 -It tcp -Il 1060 -If 2 -Ii 2 -Iv 30 -Pn tcp -Ps 1 -Pa 0 -Pf 0 -Po 0 
s -t 0.509066093 -Hs 0 -Hd 1 -Ni 0 -Nx 148.20 -Ny 148.20 -Nz 0.00 -Ne -1.000000 -Nl RTR -Nw --- -Ma 0 -Md 0 -Ms 0 -Mt 0 -Is 0.0 -Id 1.0 -It tcp -Il 1060 -If 2 -Ii 3 -Iv 30 -Pn tcp -Ps 2 -Pa 0 -Pf 0 -Po 0 
s -t 0.509541093 -Hs 0 -Hd 1 -Ni 0 -Nx 148.20 -Ny 148.20 -Nz 0.00 -Ne -1.000000 -Nl MAC -Nw --- -Ma 0 -Md 0 -Ms 8 -Mt 0 -Is 0.0 -Id 1.0 -It tcp -Il 1060 -If 2 -Ii 2 -Iv 30 -Pn tcp -Ps 1 -Pa 0 -Pf 0 -Po 0 
r -t 0.513781775 -Hs 1 -Hd 1 -Ni 1 -Nx 4.27 -Ny 2.85 -Nz 0.00 -Ne -1.000000 -Nl MAC -Nw --- -Ma 0 -Md 0 -Ms 8 -Mt 0 -Is 0.0 -Id 1.0 -It tcp -Il 1060 -If 2 -Ii 2 -Iv 30 -Pn tcp -Ps 1 -Pa 0 -Pf 0 -Po 0 
r -t 0.513806775 -Hs 1 -Hd 1 -Ni 1 -Nx 4.28 -Ny 2.85 -Nz 0.00 -Ne -1.000000 -Nl AGT -Nw --- -Ma 0 -Md 0 -Ms 8 -Mt 0 -Is 0.0 -Id 1.0 -It tcp -Il 1060 -If 2 -Ii 2 -Iv 30 -Pn tcp -Ps 1 -Pa 0 -Pf 0 -Po 0 
s -t 0.513806775 -Hs 1 -Hd -2 -Ni 1 -Nx 4.28 -Ny 2.85 -Nz 0.00 -Ne -1.000000 -Nl AGT -Nw --- -Ma 0 -Md 0 -Ms 0 -Mt 0 -Is 1.0 -Id 0.0 -It ack -Il 40 -If 2 -Ii 4 -Iv 32 -Pn tcp -Ps 1 -Pa 0 -Pf 0 -Po 0 
r -t 0.513806775 -Hs 1 -Hd -2 -Ni 1 -Nx 4.28 -Ny 2.85 -Nz 0.00 -Ne -1.000000 -Nl RTR -Nw --- -Ma 0 -Md 0 -Ms 0 -Mt 0 -Is 1.0 -Id 0.0 -It ack -Il 40 -If 2 -Ii 4 -Iv 32 -Pn tcp -Ps 1 -Pa 0 -Pf 0 -Po 0 
s -t 0.513806775 -Hs 1 -Hd 0 -Ni 1 -Nx 4.28 -Ny 2.85 -Nz 0.00 -Ne -1.000000 -Nl RTR -Nw --- -Ma 0 -Md 0 -Ms 0 -Mt 0 -Is 1.0 -Id 0.0 -It ack -Il 60 -If 2 -Ii 4 -Iv 30 -Pn tcp -Ps 1 -Pa 0 -Pf 0 -Po 0 
s -t 0.514231775 -Hs 1 -Hd 0 -Ni 1 -Nx 4.28 -Ny 2.85 -Nz 0.00 -Ne -1.000000 -Nl MAC -Nw --- -Ma 0 -Md 1000000 -Ms 8 -Mt 0 -Is 1.0 -Id 0.0 -It ack -Il 60 -If 2 -Ii 4 -Iv 30 -Pn tcp -Ps 1 -Pa 0 -Pf 0 -Po 0 
r -t 0.514472457 -Hs 0 -Hd 0 -Ni 0 -Nx 148.18 -Ny 148.18 -Nz 0.00 -Ne -1.000000 -Nl MAC -Nw --- -Ma 0 -Md 1000000 -Ms 8 -Mt 0 -Is 1.0 -Id 0.0 -It ack -Il 60 -If 2 -Ii 4 -Iv 30 -Pn tcp -Ps 1 -Pa 0 -Pf 0 -Po 0 
r -t 0.514497457 -Hs 0 -Hd 0 -Ni 0 -Nx 148.18 -Ny 148.18 -Nz 0.00 -Ne -1.000000 -Nl AGT -Nw --- -Ma 0 -Md 1000000 -Ms 8 -Mt 0 -Is 1.0 -Id 0.0 -It ack -Il 60 -If 2 -Ii 4 -Iv 30 -Pn tcp -Ps 1 -Pa 0 -Pf 0 -Po 0 
s -t 0.514497457 -Hs 0 -Hd -2 -Ni 0 -Nx 148.18 -Ny 148.18 -Nz 0.00 -Ne -1.000000 -Nl AGT -Nw --- -Ma 0 -Md 0 -Ms 0 -Mt 0 -Is 0.0 -Id 1.0 -It tcp -Il 1040 -If 2 -Ii 5 -Iv 32 -Pn tcp -Ps 3 -Pa 0 -Pf 0 -Po 0 
r -t 0.514497457 -Hs 0 -Hd -2 -Ni 0 -Nx 148.18 -Ny 148.18 -Nz 0.00 -Ne -1.000000 -Nl RTR -Nw --- -Ma 0 -Md 0 -Ms 0 -Mt 0 -Is 0.0 -Id 1.0 -It tcp -Il 1040 -If 2 -Ii 5 -Iv 32 -Pn tcp -Ps 3 -Pa 0 -Pf 0 -Po 0 
s -t 0.514497457 -Hs 0 -Hd -2 -Ni 0 -Nx 148.18 -Ny 148.18 -Nz 0.00 -Ne -1.000000 -Nl AGT -Nw --- -Ma 0 -Md 0 -Ms 0 -Mt 0 -Is 0.0 -Id 1.0 -It tcp -Il 1040 -If 2 -Ii 6 -Iv 32 -Pn tcp -Ps 4 -Pa 0 -Pf 0 -Po 0 
r -t 0.514497457 -Hs 0 -Hd -2 -Ni 0 -Nx 148.18 -Ny 148.18 -Nz 0.00 -Ne -1.000000 -Nl RTR -Nw --- -Ma 0 -Md 0 -Ms 0 -Mt 0 -Is 0.0 -Id 1.0 -It tcp -Il 1040 -If 2 -Ii 6 -Iv 32 -Pn tcp -Ps 4 -Pa 0 -Pf 0 -Po 0 
s -t 0.514497457 -Hs 0 -Hd 1 -Ni 0 -Nx 148.18 -Ny 148.18 -Nz 0.00 -Ne -1.000000 -Nl RTR -Nw --- -Ma 0 -Md 0 -Ms 0 -Mt 0 -Is 0.0 -Id 1.0 -It tcp -Il 1060 -If 2 -Ii 5 -Iv 30 -Pn tcp -Ps 3 -Pa 0 -Pf 0 -Po 0 
s -t 0.514497457 -Hs 0 -Hd 1 -Ni 0 -Nx 148.18 -Ny 148.18 -Nz 0.00 -Ne -1.000000 -Nl RTR -Nw --- -Ma 0 -Md 0 -Ms 0 -Mt 0 -Is 0.0 -Id 1.0 -It tcp -Il 1060 -If 2 -Ii 6 -Iv 30 -Pn tcp -Ps 4 -Pa 0 -Pf 0 -Po 0 
s -t 0.515031093 -Hs 0 -Hd 1 -Ni 0 -Nx 148.18 -Ny 148.18 -Nz 0.00 -Ne -1.000000 -Nl MAC -Nw --- -Ma 0 -Md 0 -Ms 8 -Mt 0 -Is 0.0 -Id 1.0 -It tcp -Il 1060 -If 2 -Ii 3 -Iv 30 -Pn tcp -Ps 2 -Pa 0 -Pf 0 -Po 0 
r -t 0.519271775 -Hs 1 -Hd 1 -Ni 1 -Nx 4.32 -Ny 2.88 -Nz 0.00 -Ne -1.000000 -Nl MAC -Nw --- -Ma 0 -Md 0 -Ms 8 -Mt 0 -Is 0.0 -Id 1.0 -It tcp -Il 1060 -If 2 -Ii 3 -Iv 30 -Pn tcp -Ps 2 -Pa 0 -Pf 0 -Po 0 
r -t 0.519296775 -Hs 1 -Hd 1 -Ni 1 -Nx 4.32 -Ny 2.88 -Nz 0.00 -Ne -1.000000 -Nl AGT -Nw --- -Ma 0 -Md 0 -Ms 8 -Mt 0 -Is 0.0 -Id 1.0 -It tcp -Il 1060 -If 2 -Ii 3 -Iv 30 -Pn tcp -Ps 2 -Pa 0 -Pf 0 -Po 0 
s -t 0.519296775 -Hs 1 -Hd -2 -Ni 1 -Nx 4.32 -Ny 2.88 -Nz 0.00 -Ne -1.000000 -Nl AGT -Nw --- -Ma 0 -Md 0 -Ms 0 -Mt 0 -Is 1.0 -Id 0.0 -It ack -Il 40 -If 2 -Ii 7 -Iv 32 -Pn tcp -Ps 2 -Pa 0 -Pf 0 -Po 0 
r -t 0.519296775 -Hs 1 -Hd -2 -Ni 1 -Nx 4.32 -Ny 2.88 -Nz 0.00 -Ne -1.000000 -Nl RTR -Nw --- -Ma 0 -Md 0 -Ms 0 -Mt 0 -Is 1.0 -Id 0.0 -It ack -Il 40 -If 2 -Ii 7 -Iv 32 -Pn tcp -Ps 2 -Pa 0 -Pf 0 -Po 0 
s -t 0.519296775 -Hs 1 -Hd 0 -Ni 1 -Nx 4.32 -Ny 2.88 -Nz 0.00 -Ne -1.000000 -Nl RTR -Nw --- -Ma 0 -Md 0 -Ms 0 -Mt 0 -Is 1.0 -Id 0.0 -It ack -Il 60 -If 2 -Ii 7 -Iv 30 -Pn tcp -Ps 2 -Pa 0 -Pf 0 -Po 0 
s -t 0.520371093 -Hs 0 -Hd 1 -Ni 0 -Nx 148.16 -Ny 148.16 -Nz 0.00 -Ne -1.000000 -Nl MAC -Nw --- -Ma 0 -Md 0 -Ms 8 -Mt 0 -Is 0.0 -Id 1.0 -It tcp -Il 1060 -If 2 -Ii 5 -Iv 30 -Pn tcp -Ps 3 -Pa 0 -Pf 0 -Po 0 
s -t 0.521271775 -Hs 1 -Hd 0 -Ni 1 -Nx 4.34 -Ny 2.89 -Nz 0.00 -Ne -1.000000 -Nl MAC -Nw --- -Ma 0 -Md 1000000 -Ms 8 -Mt 0 -Is 1.0 -Id 0.0 -It ack -Il 60 -If 2 -Ii 7 -Iv 30 -Pn tcp -Ps 2 -Pa 0 -Pf 0 -Po 0 
r -t 0.524611774 -Hs 1 -Hd 1 -Ni 1 -Nx 4.37 -Ny 2.91 -Nz 0.00 -Ne -1.000000 -Nl MAC -Nw --- -Ma 0 -Md 0 -Ms 8 -Mt 0 -Is 0.0 -Id 1.0 -It tcp -Il 1060 -If 2 -Ii 5 -Iv 30 -Pn tcp -Ps 3 -Pa 0 -Pf 0 -Po 0 
r -t 0.524636774 -Hs 1 -Hd 1 -Ni 1 -Nx 4.37 -Ny 2.91 -Nz 0.00 -Ne -1.000000 -Nl AGT -Nw --- -Ma 0 -Md 0 -Ms 8 -Mt 0 -Is 0.0 -Id 1.0 -It tcp -Il 1060 -If 2 -Ii 5 -Iv 30 -Pn tcp -Ps 3 -Pa 0 -Pf 0 -Po 0 
s -t 0.524636774 -Hs 1 -Hd -2 -Ni 1 -Nx 4.37 -Ny 2.91 -Nz 0.00 -Ne -1.000000 -Nl AGT -Nw --- -Ma 0 -Md 0 -Ms 0 -Mt 0 -Is 1.0 -Id 0.0 -It ack -Il 40 -If 2 -Ii 8 -Iv 32 -Pn tcp -Ps 3 -Pa 0 -Pf 0 -Po 0 
r -t 0.524636774 -Hs 1 -Hd -2 -Ni 1 -Nx 4.37 -Ny 2.91 -Nz 0.00 -Ne -1.000000 -Nl RTR -Nw --- -Ma 0 -Md 0 -Ms 0 -Mt 0 -Is 1.0 -Id 0.0 -It ack -Il 40 -If 2 -Ii 8 -Iv 32 -Pn tcp -Ps 3 -Pa 0 -Pf 0 -Po 0 
s -t 0.524636774 -Hs 1 -Hd 0 -Ni 1 -Nx 4.37 -Ny 2.91 -Nz 0.00 -Ne -1.000000 -Nl RTR -Nw --- -Ma 0 -Md 0 -Ms 0 -Mt 0 -Is 1.0 -Id 0.0 -It ack -Il 60 -If 2 -Ii 8 -Iv 30 -Pn tcp -Ps 3 -Pa 0 -Pf 0 -Po 0 
s -t 0.525261774 -Hs 1 -Hd 0 -Ni 1 -Nx 4.37 -Ny 2.91 -Nz 0.00 -Ne -1.000000 -Nl MAC -Nw --- -Ma 0 -Md 1000000 -Ms 8 -Mt 0 -Is 1.0 -Id 0.0 -It ack -Il 60 -If 2 -Ii 8 -Iv 30 -Pn tcp -Ps 3 -Pa 0 -Pf 0 -Po 0 
s -t 0.525411093 -Hs 0 -Hd 1 -Ni 0 -Nx 148.14 -Ny 148.14 -Nz 0.00 -Ne -1.000000 -Nl MAC -Nw --- -Ma 0 -Md 0 -Ms 8 -Mt 0 -Is 0.0 -Id 1.0 -It tcp -Il 1060 -If 2 -Ii 6 -Iv 30 -Pn tcp -Ps 4 -Pa 0 -Pf 0 -Po 0 
d -t 0.529651774 -Hs 1 -Hd 1 -Ni 1 -Nx 4.41 -Ny 2.94 -Nz 0.00 -Ne -1.000000 -Nl MAC -Nw ERR -Ma 0 -Md 0 -Ms 8 -Mt 0 -Is 0.0 -Id 1.0 -It tcp -Il 1060 -If 2 -Ii 6 -Iv 30 -Pn tcp -Ps 4 -Pa 0 -Pf 0 -Po 0 
s -t 0.714497457 -Hs 0 -Hd -2 -Ni 0 -Nx 147.47 -Ny 147.47 -Nz 0.00 -Ne -1.000000 -Nl AGT -Nw --- -Ma 0 -Md 0 -Ms 0 -Mt 0 -Is 0.0 -Id 1.0 -It tcp -Il 1040 -If 2 -Ii 9 -Iv 32 -Pn tcp -Ps 2 -Pa 0 -Pf 0 -Po 0 
r -t 0.714497457 -Hs 0 -Hd -2 -Ni 0 -Nx 147.47 -Ny 147.47 -Nz 0.00 -Ne -1.000000 -Nl RTR -Nw --- -Ma 0 -Md 0 -Ms 0 -Mt 0 -Is 0.0 -Id 1.0 -It tcp -Il 1040 -If 2 -Ii 9 -Iv 32 -Pn tcp -Ps 2 -Pa 0 -Pf 0 -Po 0 
s -t 0.714497457 -Hs 0 -Hd 1 -Ni 0 -Nx 147.47 -Ny 147.47 -Nz 0.00 -Ne -1.000000 -Nl RTR -Nw --- -Ma 0 -Md 0 -Ms 0 -Mt 0 -Is 0.0 -Id 1.0 -It tcp -Il 1060 -If 2 -Ii 9 -Iv 30 -Pn tcp -Ps 2 -Pa 0 -Pf 0 -Po 0 
s -t 0.716072457 -Hs 0 -Hd 1 -Ni 0 -Nx 147.47 -Ny 147.47 -Nz 0.00 -Ne -1.000000 -Nl MAC -Nw --- -Ma 0 -Md 0 -Ms 8 -Mt 0 -Is 0.0 -Id 1.0 -It tcp -Il 1060 -If 2 -Ii 9 -Iv 30 -Pn tcp -Ps 2 -Pa 0 -Pf 0 -Po 0 
r -t 0.720313128 -Hs 1 -Hd 1 -Ni 1 -Nx 5.99 -Ny 4.00 -Nz 0.00 -Ne -1.000000 -Nl MAC -Nw --- -Ma 0 -Md 0 -Ms 8 -Mt 0 -Is 0.0 -Id 1.0 -It tcp -Il 1060 -If 2 -Ii 9 -Iv 30 -Pn tcp -Ps 2 -Pa 0 -Pf 0 -Po 0 
r -t 0.720338128 -Hs 1 -Hd 1 -Ni 1 -Nx 5.99 -Ny 4.00 -Nz 0.00 -Ne -1.000000 -Nl AGT -Nw --- -Ma 0 -Md 0 -Ms 8 -Mt 0 -Is 0.0 -Id 1.0 -It tcp -Il 1060 -If 2 -Ii 9 -Iv 30 -Pn tcp -Ps 2 -Pa 0 -Pf 0 -Po 0 
s -t 0.720338128 -Hs 1 -Hd -2 -Ni 1 -Nx 5.99 -Ny 4.00 -Nz 0.00 -Ne -1.000000 -Nl AGT -Nw --- -Ma 0 -Md 0 -Ms 0 -Mt 0 -Is 1.0 -Id 0.0 -It ack -Il 40 -If 2 -Ii 10 -Iv 32 -Pn tcp -Ps 3 -Pa 0 -Pf 0 -Po 0 
r -t 0.720338128 -Hs 1 -Hd -2 -Ni 1 -Nx 5.99 -Ny 4.00 -Nz 0.00 -Ne -1.000000 -Nl RTR -Nw --- -Ma 0 -Md 0 -Ms 0 -Mt 0 -Is 1.0 -Id 0.0 -It ack -Il 40 -If 2 -Ii 10 -Iv 32 -Pn tcp -Ps 3 -Pa 0 -Pf 0 -Po 0 
s -t 0.720338128 -Hs 1 -Hd 0 -Ni 1 -Nx 5.99 -Ny 4.00 -Nz 0.00 -Ne -1.000000 -Nl RTR -Nw --- -Ma 0 -Md 0 -Ms 0 -Mt 0 -Is 1.0 -Id 0.0 -It ack -Il 60 -If 2 -Ii 10 -Iv 30 -Pn tcp -Ps 3 -Pa 0 -Pf 0 -Po 0 
s -t 0.721963128 -Hs 1 -Hd 0 -Ni 1 -Nx 6.01 -Ny 4.00 -Nz 0.00 -Ne -1.000000 -Nl MAC -Nw --- -Ma 0 -Md 1000000 -Ms 8 -Mt 0 -Is 1.0 -Id 0.0 -It ack -Il 60 -If 2 -Ii 10 -Iv 30 -Pn tcp -Ps 3 -Pa 0 -Pf 0 -Po 0 
r -t 0.722203800 -Hs 0 -Hd 0 -Ni 0 -Nx 147.45 -Ny 147.45 -Nz 0.00 -Ne -1.000000 -Nl MAC -Nw --- -Ma 0 -Md 1000000 -Ms 8 -Mt 0 -Is 1.0 -Id 0.0 -It ack -Il 60 -If 2 -Ii 10 -Iv 30 -Pn tcp -Ps 3 -Pa 0 -Pf 0 -Po 0 
r -t 0.722228800 -Hs 0 -Hd 0 -Ni 0 -Nx 147.45 -Ny 147.45 -Nz 0.00 -Ne -1.000000 -Nl AGT -Nw --- -Ma 0 -Md 1000000 -Ms 8 -Mt 0 -Is 1.0 -Id 0.0 -It ack -Il 60 -If 2 -Ii 10 -Iv 30 -Pn tcp -Ps 3 -Pa 0 -Pf 0 -Po 0 
s -t 0.722228800 -Hs 0 -Hd -2 -Ni 0 -Nx 147.45 -Ny 147.45 -Nz 0.00 -Ne -1.000000 -Nl AGT -Nw --- -Ma 0 -Md 0 -Ms 0 -Mt 0 -Is 0.0 -Id 1.0 -It tcp -Il 1040 -If 2 -Ii 11 -Iv 32 -Pn tcp -Ps 4 -Pa 0 -Pf 0 -Po 0 
r -t 0.722228800 -Hs 0 -Hd -2 -Ni 0 -Nx 147.45 -Ny 147.45 -Nz 0.00 -Ne -1.000000 -Nl RTR -Nw --- -Ma 0 -Md 0 -Ms 0 -Mt 0 -Is 0.0 -Id 1.0 -It tcp -Il 1040 -If 2 -Ii 11 -Iv 32 -Pn tcp -Ps 4 -Pa 0 -Pf 0 -Po 0 
s -t 0.722228800 -Hs 0 -Hd -2 -Ni 0 -Nx 147.45 -Ny 147.45 -Nz 0.00 -Ne -1.000000 -Nl AGT -Nw --- -Ma 0 -Md 0 -Ms 0 -Mt 0 -Is 0.0 -Id 1.0 -It tcp -Il 1040 -If 2 -Ii 12 -Iv 32 -Pn tcp -Ps 5 -Pa 0 -Pf 0 -Po 0 
r -t 0.722228800 -Hs 0 -Hd -2 -Ni 0 -Nx 147.45 -Ny 147.45 -Nz 0.00 -Ne -1.000000 -Nl RTR -Nw --- -Ma 0 -Md 0 -Ms 0 -Mt 0 -Is 0.0 -Id 1.0 -It tcp -Il 1040 -If 2 -Ii 12 -Iv 32 -Pn tcp -Ps 5 -Pa 0 -Pf 0 -Po 0 
s -t 0.722228800 -Hs 0 -Hd 1 -Ni 0 -Nx 147.45 -Ny 147.45 -Nz 0.00 -Ne -1.000000 -Nl RTR -Nw --- -Ma 0 -Md 0 -Ms 0 -Mt 0 -Is 0.0 -Id 1.0 -It tcp -Il 1060 -If 2 -Ii 11 -Iv 30 -Pn tcp -Ps 4 -Pa 0 -Pf 0 -Po 0 
s -t 0.722228800 -Hs 0 -Hd 1 -Ni 0 -Nx 147.45 -Ny 147.45 -Nz 0.00 -Ne -1.000000 -Nl RTR -Nw --- -Ma 0 -Md 0 -Ms 0 -Mt 0 -Is 0.0 -Id 1.0 -It tcp -Il 1060 -If 2 -Ii 12 -Iv 30 -Pn tcp -Ps 5 -Pa 0 -Pf 0 -Po 0 
s -t 0.722803800 -Hs 0 -Hd 1 -Ni 0 -Nx 147.44 -Ny 147.44 -Nz 0.00 -Ne -1.000000 -Nl MAC -Nw --- -Ma 0 -Md 0 -Ms 8 -Mt 0 -Is 0.0 -Id 1.0 -It tcp -Il 1060 -If 2 -Ii 11 -Iv 30 -Pn tcp -Ps 4 -Pa 0 -Pf 0 -Po 0 
r -t 0.727044471 -Hs 1 -Hd 1 -Ni 1 -Nx 6.05 -Ny 4.03 -Nz 0.00 -Ne -1.000000 -Nl MAC -Nw --- -Ma 0 -Md 0 -Ms 8 -Mt 0 -Is 0.0 -Id 1.0 -It tcp -Il 1060 -If 2 -Ii 11 -Iv 30 -Pn tcp -Ps 4 -Pa 0 -Pf 0 -Po 0 
r -t 0.727069471 -Hs 1 -Hd 1 -Ni 1 -Nx 6.05 -Ny 4.03 -Nz 0.00 -Ne -1.000000 -Nl AGT -Nw --- -Ma 0 -Md 0 -Ms 8 -Mt 0 -Is 0.0 -Id 1.0 -It tcp -Il 1060 -If 2 -Ii 11 -Iv 30 -Pn tcp -Ps 4 -Pa 0 -Pf 0 -Po 0 
s -t 0.727069471 -Hs 1 -Hd -2 -Ni 1 -Nx 6.05 -Ny 4.03 -Nz 0.00 -Ne -1.000000 -Nl AGT -Nw --- -Ma 0 -Md 0 -Ms 0 -Mt 0 -Is 1.0 -Id 0.0 -It ack -Il 40 -If 2 -Ii 13 -Iv 32 -Pn tcp -Ps 4 -Pa 0 -Pf 0 -Po 0 
r -t 0.727069471 -Hs 1 -Hd -2 -Ni 1 -Nx 6.05 -Ny 4.03 -Nz 0.00 -Ne -1.000000 -Nl RTR -Nw --- -Ma 0 -Md 0 -Ms 0 -Mt 0 -Is 1.0 -Id 0.0 -It ack -Il 40 -If 2 -Ii 13 -Iv 32 -Pn tcp -Ps 4 -Pa 0 -Pf 0 -Po 0 
s -t 0.727069471 -Hs 1 -Hd 0 -Ni 1 -Nx 6.05 -Ny 4.03 -Nz 0.00 -Ne -1.000000 -Nl RTR -Nw --- -Ma 0 -Md 0 -Ms 0 -Mt 0 -Is 1.0 -Id 0.0 -It ack -Il 60 -If 2 -Ii 13 -Iv 30 -Pn tcp -Ps 4 -Pa 0 -Pf 0 -Po 0 
s -t 0.728294471 -Hs 1 -Hd 0 -Ni 1 -Nx 6.06 -Ny 4.04 -Nz 0.00 -Ne -1.000000 -Nl MAC -Nw --- -Ma 0 -Md 1000000 -Ms 8 -Mt 0 -Is 1.0 -Id 0.0 -It ack -Il 60 -If 2 -Ii 13 -Iv 30 -Pn tcp -Ps 4 -Pa 0 -Pf 0 -Po 0 
r -t 0.728535143 -Hs 0 -Hd 0 -Ni 0 -Nx 147.42 -Ny 147.42 -Nz 0.00 -Ne -1.000000 -Nl MAC -Nw --- -Ma 0 -Md 1000000 -Ms 8 -Mt 0 -Is 1.0 -Id 0.0 -It ack -Il 60 -If 2 -Ii 13 -Iv 30 -Pn tcp -Ps 4 -Pa 0 -Pf 0 -Po 0 
r -t 0.728560143 -Hs 0 -Hd 0 -Ni 0 -Nx 147.42 -Ny 147.42 -Nz 0.00 -Ne -1.000000 -Nl AGT -Nw --- -Ma 0 -Md 1000000 -Ms 8 -Mt 0 -Is 1.0 -Id 0.0 -It ack -Il 60 -If 2 -Ii 13 -Iv 30 -Pn tcp -Ps 4 -Pa 0 -Pf 0 -Po 0 
s -t 0.728560143 -Hs 0 -Hd -2 -Ni 0 -Nx 147.42 -Ny 147.42 -Nz 0.00 -Ne -1.000000 -Nl AGT -Nw --- -Ma 0 -Md 0 -Ms 0 -Mt 0 -Is 0.0 -Id 1.0 -It tcp -Il 1040 -If 2 -Ii 14 -Iv 32 -Pn tcp -Ps 6 -Pa 0 -Pf 0 -Po 0 
r -t 0.728560143 -Hs 0 -Hd -2 -Ni 0 -Nx 147.42 -Ny 147.42 -Nz 0.00 -Ne -1.000000 -Nl RTR -Nw --- -Ma 0 -Md 0 -Ms 0 -Mt 0 -Is 0.0 -Id 1.0 -It tcp -Il 1040 -If 2 -Ii 14 -Iv 32 -Pn tcp -Ps 6 -Pa 0 -Pf 0 -Po 0 
s -t 0.728560143 -Hs 0 -Hd 1 -Ni 0 -Nx 147.42 -Ny 147.42 -Nz 0.00 -Ne -1.000000 -Nl RTR -Nw --- -Ma 0 -Md 0 -Ms 0 -Mt 0 -Is 0.0 -Id 1.0 -It tcp -Il 1060 -If 2 -Ii 14 -Iv 30 -Pn tcp -Ps 6 -Pa 0 -Pf 0 -Po 0 
s -t 0.728693800 -Hs 0 -Hd 1 -Ni 0 -Nx 147.42 -Ny 147.42 -Nz 0.00 -Ne -1.000000 -Nl MAC -Nw --- -Ma 0 -Md 0 -Ms 8 -Mt 0 -Is 0.0 -Id 1.0 -It tcp -Il 1060 -If 2 -Ii 12 -Iv 30 -Pn tcp -Ps 5 -Pa 0 -Pf 0 -Po 0 
r -t 0.732934471 -Hs 1 -Hd 1 -Ni 1 -Nx 6.10 -Ny 4.07 -Nz 0.00 -Ne -1.000000 -Nl MAC -Nw --- -Ma 0 -Md 0 -Ms 8 -Mt 0 -Is 0.0 -Id 1.0 -It tcp -Il 1060 -If 2 -Ii 12 -Iv 30 -Pn tcp -Ps 5 -Pa 0 -Pf 0 -Po 0 
r -t 0.732959471 -Hs 1 -Hd 1 -Ni 1 -Nx 6.10 -Ny 4.07 -Nz 0.00 -Ne -1.000000 -Nl AGT -Nw --- -Ma 0 -Md 0 -Ms 8 -Mt 0 -Is 0.0 -Id 1.0 -It tcp -Il 1060 -If 2 -Ii 12 -Iv 30 -Pn tcp -Ps 5 -Pa 0 -Pf 0 -Po 0 
s -t 0.732959471 -Hs 1 -Hd -2 -Ni 1 -Nx 6.10 -Ny 4.07 -Nz 0.00 -Ne -1.000000 -Nl AGT -Nw --- -Ma 0 -Md 0 -Ms 0 -Mt 0 -Is 1.0 -Id 0.0 -It ack -Il 40 -If 2 -Ii 15 -Iv 32 -Pn tcp -Ps 5 -Pa 0 -Pf 0 -Po 0 
r -t 0.732959471 -Hs 1 -Hd -2 -Ni 1 -Nx 6.10 -Ny 4.07 -Nz 0.00 -Ne -1.000000 -Nl RTR -Nw --- -Ma 0 -Md 0 -Ms 0 -Mt 0 -Is 1.0 -Id 0.0 -It ack -Il 40 -If 2 -Ii 15 -Iv 32 -Pn tcp -Ps 5 -Pa 0 -Pf 0 -Po 0 
s -t 0.732959471 -Hs 1 -Hd 0 -Ni 1 -Nx 6.10 -Ny 4.07 -Nz 0.00 -Ne -1.000000 -Nl RTR -Nw --- -Ma 0 -Md 0 -Ms 0 -Mt 0 -Is 1.0 -Id 0.0 -It ack -Il 60 -If 2 -Ii 15 -Iv 30 -Pn tcp -Ps 5 -Pa 0 -Pf 0 -Po 0 
s -t 0.733433800 -Hs 0 -Hd 1 -Ni 0 -Nx 147.41 -Ny 147.41 -Nz 0.00 -Ne -1.000000 -Nl MAC -Nw --- -Ma 0 -Md 0 -Ms 8 -Mt 0 -Is 0.0 -Id 1.0 -It tcp -Il 1060 -If 2 -Ii 14 -Iv 30 -Pn tcp -Ps 6 -Pa 0 -Pf 0 -Po 0 
s -t 0.734084471 -Hs 1 -Hd 0 -Ni 1 -Nx 6.11 -Ny 4.07 -Nz 0.00 -Ne -1.000000 -Nl MAC -Nw --- -Ma 0 -Md 1000000 -Ms 8 -Mt 0 -Is 1.0 -Id 0.0 -It ack -Il 60 -If 2 -Ii 15 -Iv 30 -Pn tcp -Ps 5 -Pa 0 -Pf 0 -Po 0 
r -t 0.737674471 -Hs 1 -Hd 1 -Ni 1 -Nx 6.14 -Ny 4.09 -Nz 0.00 -Ne -1.000000 -Nl MAC -Nw --- -Ma 0 -Md 0 -Ms 8 -Mt 0 -Is 0.0 -Id 1.0 -It tcp -Il 1060 -If 2 -Ii 14 -Iv 30 -Pn tcp -Ps 6 -Pa 0 -Pf 0 -Po 0 
r -t 0.737699471 -Hs 1 -Hd 1 -Ni 1 -Nx 6.14 -Ny 4.09 -Nz 0.00 -Ne -1.000000 -Nl AGT -Nw --- -Ma 0 -Md 0 -Ms 8 -Mt 0 -Is 0.0 -Id 1.0 -It tcp -Il 1060 -If 2 -Ii 14 -Iv 30 -Pn tcp -Ps 6 -Pa 0 -Pf 0 -Po 0 
s -t 0.737699471 -Hs 1 -Hd -2 -Ni 1 -Nx 6.14 -Ny 4.09 -Nz 0.00 -Ne -1.000000 -Nl AGT -Nw --- -Ma 0 -Md 0 -Ms 0 -Mt 0 -Is 1.0 -Id 0.0 -It ack -Il 40 -If 2 -Ii 16 -Iv 32 -Pn tcp -Ps 6 -Pa 0 -Pf 0 -Po 0 
r -t 0.737699471 -Hs 1 -Hd -2 -Ni 1 -Nx 6.14 -Ny 4.09 -Nz 0.00 -Ne -1.000000 -Nl RTR -Nw --- -Ma 0 -Md 0 -Ms 0 -Mt 0 -Is 1.0 -Id 0.0 -It ack -Il 40 -If 2 -Ii 16 -Iv 32 -Pn tcp -Ps 6 -Pa 0 -Pf 0 -Po 0 
s -t 0.737699471 -Hs 1 -Hd 0 -Ni 1 -Nx 6.14 -Ny 4.09 -Nz 0.00 -Ne -1.000000 -Nl RTR -Nw --- -Ma 0 -Md 0 -Ms 0 -Mt 0 -Is 1.0 -Id 0.0 -It ack -Il 60 -If 2 -Ii 16 -Iv 30 -Pn tcp -Ps 6 -Pa 0 -Pf 0 -Po 0 
s -t 0.738174471 -Hs 1 -Hd 0 -Ni 1 -Nx 6.14 -Ny 4.09 -Nz 0.00 -Ne -1.000000 -Nl MAC -Nw --- -Ma 0 -Md 1000000 -Ms 8 -Mt 0 -Is 1.0 -Id 0.0 -It ack -Il 60 -If 2 -Ii 16 -Iv 30 -Pn tcp -Ps 6 -Pa 0 -Pf 0 -Po 0 
r -t 0.738415142 -Hs 0 -Hd 0 -Ni 0 -Nx 147.39 -Ny 147.39 -Nz 0.00 -Ne -1.000000 -Nl MAC -Nw --- -Ma 0 -Md 1000000 -Ms 8 -Mt 0 -Is 1.0 -Id 0.0 -It ack -Il 60 -If 2 -Ii 16 -Iv 30 -Pn tcp -Ps 6 -Pa 0 -Pf 0 -Po 0 
r -t 0.738440142 -Hs 0 -Hd 0 -Ni 0 -Nx 147.39 -Ny 147.39 -Nz 0.00 -Ne -1.000000 -Nl AGT -Nw --- -Ma 0 -Md 1000000 -Ms 8 -Mt 0 -Is 1.0 -Id 0.0 -It ack -Il 60 -If 2 -Ii 16 -Iv 30 -Pn tcp -Ps 6 -Pa 0 -Pf 0 -Po 0 
s -t 0.738440142 -Hs 0 -Hd -2 -Ni 0 -Nx 147.39 -Ny 147.39 -Nz 0.00 -Ne -1.000000 -Nl AGT -Nw --- -Ma 0 -Md 0 -Ms 0 -Mt 0 -Is 0.0 -Id 1.0 -It tcp -Il 1040 -If 2 -Ii 17 -Iv 32 -Pn tcp -Ps 7 -Pa 0 -Pf 0 -Po 0 
r -t 0.738440142 -Hs 0 -Hd -2 -Ni 0 -Nx 147.39 -Ny 147.39 -Nz 0.00 -Ne -1.000000 -Nl RTR -Nw --- -Ma 0 -Md 0 -Ms 0 -Mt 0 -Is 0.0 -Id 1.0 -It tcp -Il 1040 -If 2 -Ii 17 -Iv 32 -Pn tcp -Ps 7 -Pa 0 -Pf 0 -Po 0 
s -t 0.738440142 -Hs 0 -Hd -2 -Ni 0 -Nx 147.39 -Ny 147.39 -Nz 0.00 -Ne -1.000000 -Nl AGT -Nw --- -Ma 0 -Md 0 -Ms 0 -Mt 0 -Is 0.0 -Id 1.0 -It tcp -Il 1040 -If 2 -Ii 18 -Iv 32 -Pn tcp -Ps 8 -Pa 0 -Pf 0 -Po 0 
r -t 0.738440142 -Hs 0 -Hd -2 -Ni 0 -Nx 147.39 -Ny 147.39 -Nz 0.00 -Ne -1.000000 -Nl RTR -Nw --- -Ma 0 -Md 0 -Ms 0 -Mt 0 -Is 0.0 -Id 1.0 -It tcp -Il 1040 -If 2 -Ii 18 -Iv 32 -Pn tcp -Ps 8 -Pa 0 -Pf 0 -Po 0 
s -t 0.738440142 -Hs 0 -Hd 1 -Ni 0 -Nx 147.39 -Ny 147.39 -Nz 0.00 -Ne -1.000000 -Nl RTR -Nw --- -Ma 0 -Md 0 -Ms 0 -Mt 0 -Is 0.0 -Id 1.0 -It tcp -Il 1060 -If 2 -Ii 17 -Iv 30 -Pn tcp -Ps 7 -Pa 0 -Pf 0 -Po 0 
s -t 0.738440142 -Hs 0 -Hd 1 -Ni 0 -Nx 147.39 -Ny 147.39 -Nz 0.00 -Ne -1.000000 -Nl RTR -Nw --- -Ma 0 -Md 0 -Ms 0 -Mt 0 -Is 0.0 -Id 1.0 -It tcp -Il 1060 -If 2 -Ii 18 -Iv 30 -Pn tcp -Ps 8 -Pa 0 -Pf 0 -Po 0 
s -t 0.738915142 -Hs 0 -Hd 1 -Ni 0 -Nx 147.39 -Ny 147.39 -Nz 0.00 -Ne -1.000000 -Nl MAC -Nw --- -Ma 0 -Md 0 -Ms 8 -Mt 0 -Is 0.0 -Id 1.0 -It tcp -Il 1060 -If 2 -Ii 17 -Iv 30 -Pn tcp -Ps 7 -Pa 0 -Pf 0 -Po 0 
r -t 0.743155812 -Hs 1 -Hd 1 -Ni 1 -Nx 6.18 -Ny 4.12 -Nz 0.00 -Ne -1.000000 -Nl MAC -Nw --- -Ma 0 -Md 0 -Ms 8 -Mt 0 -Is 0.0 -Id 1.0 -It tcp -Il 1060 -If 2 -Ii 17 -Iv 30 -Pn tcp -Ps 7 -Pa 0 -Pf 0 -Po 0 
r -t 0.743180812 -Hs 1 -Hd 1 -Ni 1 -Nx 6.18 -Ny 4.12 -Nz 0.00 -Ne -1.000000 -Nl AGT -Nw --- -Ma 0 -Md 0 -Ms 8 -Mt 0 -Is 0.0 -Id 1.0 -It tcp -Il 1060 -If 2 -Ii 17 -Iv 30 -Pn tcp -Ps 7 -Pa 0 -Pf 0 -Po 0 
s -t 0.743180812 -Hs 1 -Hd -2 -Ni 1 -Nx 6.18 -Ny 4.12 -Nz 0.00 -Ne -1.000000 -Nl AGT -Nw --- -Ma 0 -Md 0 -Ms 0 -Mt 0 -Is 1.0 -Id 0.0 -It ack -Il 40 -If 2 -Ii 19 -Iv 32 -Pn tcp -Ps 7 -Pa 0 -Pf 0 -Po 0 
r -t 0.743180812 -Hs 1 -Hd -2 -Ni 1 -Nx 6.18 -Ny 4.12 -Nz 0.00 -Ne -1.000000 -Nl RTR -Nw --- -Ma 0 -Md 0 -Ms 0 -Mt 0 -Is 1.0 -Id 0.0 -It ack -Il 40 -If 2 -Ii 19 -Iv 32 -Pn tcp -Ps 7 -Pa 0 -Pf 0 -Po 0 
s -t 0.743180812 -Hs 1 -Hd 0 -Ni 1 -Nx 6.18 -Ny 4.12 -Nz 0.00 -Ne -1.000000 -Nl RTR -Nw --- -Ma 0 -Md 0 -Ms 0 -Mt 0 -Is 1.0 -Id 0.0 -It ack -Il 60 -If 2 -Ii 19 -Iv 30 -Pn tcp -Ps 7 -Pa 0 -Pf 0 -Po 0 
s -t 0.743455142 -Hs 0 -Hd 1 -Ni 0 -Nx 147.37 -Ny 147.37 -Nz 0.00 -Ne -1.000000 -Nl MAC -Nw --- -Ma 0 -Md 0 -Ms 8 -Mt 0 -Is 0.0 -Id 1.0 -It tcp -Il 1060 -If 2 -Ii 18 -Iv 30 -Pn tcp -Ps 8 -Pa 0 -Pf 0 -Po 0 
s -t 0.743455812 -Hs 1 -Hd 0 -Ni 1 -Nx 6.19 -Ny 4.12 -Nz 0.00 -Ne -1.000000 -Nl MAC -Nw --- -Ma 0 -Md 1000000 -Ms 8 -Mt 0 -Is 1.0 -Id 0.0 -It ack -Il 60 -If 2 -Ii 19 -Iv 30 -Pn tcp -Ps 7 -Pa 0 -Pf 0 -Po 0 
r -t 0.747695812 -Hs 1 -Hd 1 -Ni 1 -Nx 6.22 -Ny 4.15 -Nz 0.00 -Ne -1.000000 -Nl MAC -Nw --- -Ma 0 -Md 0 -Ms 8 -Mt 0 -Is 0.0 -Id 1.0 -It tcp -Il 1060 -If 2 -Ii 18 -Iv 30 -Pn tcp -Ps 8 -Pa 0 -Pf 0 -Po 0 
r -t 0.747720812 -Hs 1 -Hd 1 -Ni 1 -Nx 6.22 -Ny 4.15 -Nz 0.00 -Ne -1.000000 -Nl AGT -Nw --- -Ma 0 -Md 0 -Ms 8 -Mt 0 -Is 0.0 -Id 1.0 -It tcp -Il 1060 -If 2 -Ii 18 -Iv 30 -Pn tcp -Ps 8 -Pa 0 -Pf 0 -Po 0 
s -t 0.747720812 -Hs 1 -Hd -2 -Ni 1 -Nx 6.22 -Ny 4.15 -Nz 0.00 -Ne -1.000000 -Nl AGT -Nw --- -Ma 0 -Md 0 -Ms 0 -Mt 0 -Is 1.0 -Id 0.0 -It ack -Il 40 -If 2 -Ii 20 -Iv 32 -Pn tcp -Ps 8 -Pa 0 -Pf 0 -Po 0 
r -t 0.747720812 -Hs 1 -Hd -2 -Ni 1 -Nx 6.22 -Ny 4.15 -Nz 0.00 -Ne -1.000000 -Nl RTR -Nw --- -Ma 0 -Md 0 -Ms 0 -Mt 0 -Is 1.0 -Id 0.0 -It ack -Il 40 -If 2 -Ii 20 -Iv 32 -Pn tcp -Ps 8 -Pa 0 -Pf 0 -Po 0 
s -t 0.747720812 -Hs 1 -Hd 0 -Ni 1 -Nx 6.22 -Ny 4.15 -Nz 0.00 -Ne -1.000000 -Nl RTR -Nw --- -Ma 0 -Md 0 -Ms 0 -Mt 0 -Is 1.0 -Id 0.0 -It ack -Il 60 -If 2 -Ii 20 -Iv 30 -Pn tcp -Ps 8 -Pa 0 -Pf 0 -Po 0 
s -t 0.749295812 -Hs 1 -Hd 0 -Ni 1 -Nx 6.23 -Ny 4.16 -Nz 0.00 -Ne -1.000000 -Nl MAC -Nw --- -Ma 0 -Md 1000000 -Ms 8 -Mt 0 -Is 1.0 -Id 0.0 -It ack -Il 60 -If 2 -Ii 20 -Iv 30 -Pn tcp -Ps 8 -Pa 0 -Pf 0 -Po 0 
r -t 0.749536482 -Hs 0 -Hd 0 -Ni 0 -Nx 147.35 -Ny 147.35 -Nz 0.00 -Ne -1.000000 -Nl MAC -Nw --- -Ma 0 -Md 1000000 -Ms 8 -Mt 0 -Is 1.0 -Id 0.0 -It ack -Il 60 -If 2 -Ii 20 -Iv 30 -Pn tcp -Ps 8 -Pa 0 -Pf 0 -Po 0 
r -t 0.749561482 -Hs 0 -Hd 0 -Ni 0 -Nx 147.35 -Ny 147.35 -Nz 0.00 -Ne -1.000000 -Nl AGT -Nw --- -Ma 0 -Md 1000000 -Ms 8 -Mt 0 -Is 1.0 -Id 0.0 -It ack -Il 60 -If 2 -Ii 20 -Iv 30 -Pn tcp -Ps 8 -Pa 0 -Pf 0 -Po 0 
s -t 0.749561482 -Hs 0 -Hd -2 -Ni 0 -Nx 147.35 -Ny 147.35 -Nz 0.00 -Ne -1.000000 -Nl AGT -Nw --- -Ma 0 -Md 0 -Ms 0 -Mt 0 -Is 0.0 -Id 1.0 -It tcp -Il 1040 -If 2 -Ii 21 -Iv 32 -Pn tcp -Ps 9 -Pa 0 -Pf 0 -Po 0 
r -t 0.749561482 -Hs 0 -Hd -2 -Ni 0 -Nx 147.35 -Ny 147.35 -Nz 0.00 -Ne -1.000000 -Nl RTR -Nw --- -Ma 0 -Md 0 -Ms 0 -Mt 0 -Is 0.0 -Id 1.0 -It tcp -Il 1040 -If 2 -Ii 21 -Iv 32 -Pn tcp -Ps 9 -Pa 0 -Pf 0 -Po 0 
s -t 0.749561482 -Hs 0 -Hd -2 -Ni 0 -Nx 147.35 -Ny 147.35 -Nz 0.00 -Ne -1.000000 -Nl AGT -Nw --- -Ma 0 -Md 0 -Ms 0 -Mt 0 -Is 0.0 -Id 1.0 -It tcp -Il 1040 -If 2 -Ii 22 -Iv 32 -Pn tcp -Ps 10 -Pa 0 -Pf 0 -Po 0 
r -t 0.749561482 -Hs 0 -Hd -2 -Ni 0 -Nx 147.35 -Ny 147.35 -Nz 0.00 -Ne -1.000000 -Nl RTR -Nw --- -Ma 0 -Md 0 -Ms 0 -Mt 0 -Is 0.0 -Id 1.0 -It tcp -Il 1040 -If 2 -Ii 22 -Iv 32 -Pn tcp -Ps 10 -Pa 0 -Pf 0 -Po 0 
s -t 0.749561482 -Hs 0 -Hd -2 -Ni 0 -Nx 147.35 -Ny 147.35 -Nz 0.00 -Ne -1.000000 -Nl AGT -Nw --- -Ma 0 -Md 0 -Ms 0 -Mt 0 -Is 0.0 -Id 1.0 -It tcp -Il 1040 -If 2 -Ii 23 -Iv 32 -Pn tcp -Ps 11 -Pa 0 -Pf 0 -Po 0 
r -t 0.749561482 -Hs 0 -Hd -2 -Ni 0 -Nx 147.35 -Ny 147.35 -Nz 0.00 -Ne -1.000000 -Nl RTR -Nw --- -Ma 0 -Md 0 -Ms 0 -Mt 0 -Is 0.0 -Id 1.0 -It tcp -Il 1040 -If 2 -Ii 23 -Iv 32 -Pn tcp -Ps 11 -Pa 0 -Pf 0 -Po 0 
s -t 0.749561482 -Hs 0 -Hd 1 -Ni 0 -Nx 147.35 -Ny 147.35 -Nz 0.00 -Ne -1.000000 -Nl RTR -Nw --- -Ma 0 -Md 0 -Ms 0 -Mt 0 -Is 0.0 -Id 1.0 -It tcp -Il 1060 -If 2 -Ii 21 -Iv 30 -Pn tcp -Ps 9 -Pa 0 -Pf 0 -Po 0 
s -t 0.749561482 -Hs 0 -Hd 1 -Ni 0 -Nx 147.35 -Ny 147.35 -Nz 0.00 -Ne -1.000000 -Nl RTR -Nw --- -Ma 0 -Md 0 -Ms 0 -Mt 0 -Is 0.0 -Id 1.0 -It tcp -Il 1060 -If 2 -Ii 22 -Iv 30 -Pn tcp -Ps 10 -Pa 0 -Pf 0 -Po 0 
s -t 0.749561482 -Hs 0 -Hd 1 -Ni 0 -Nx 147.35 -Ny 147.35 -Nz 0.00 -Ne -1.000000 -Nl RTR -Nw --- -Ma 0 -Md 0 -Ms 0 -Mt 0 -Is 0.0 -Id 1.0 -It tcp -Il 1060 -If 2 -Ii 23 -Iv 30 -Pn tcp -Ps 11 -Pa 0 -Pf 0 -Po 0 
s -t 0.749636482 -Hs 0 -Hd 1 -Ni 0 -Nx 147.35 -Ny 147.35 -Nz 0.00 -Ne -1.000000 -Nl MAC -Nw --- -Ma 0 -Md 0 -Ms 8 -Mt 0 -Is 0.0 -Id 1.0 -It tcp -Il 1060 -If 2 -Ii 21 -Iv 30 -Pn tcp -Ps 9 -Pa 0 -Pf 0 -Po 0 
r -t 0.753877152 -Hs 1 -Hd 1 -Ni 1 -Nx 6.27 -Ny 4.18 -Nz 0.00 -Ne -1.000000 -Nl MAC -Nw --- -Ma 0 -Md 0 -Ms 8 -Mt 0 -Is 0.0 -Id 1.0 -It tcp -Il 1060 -If 2 -Ii 21 -Iv 30 -Pn tcp -Ps 9 -Pa 0 -Pf 0 -Po 0 
r -t 0.753902152 -Hs 1 -Hd 1 -Ni 1 -Nx 6.27 -Ny 4.18 -Nz 0.00 -Ne -1.000000 -Nl AGT -Nw --- -Ma 0 -Md 0 -Ms 8 -Mt 0 -Is 0.0 -Id 1.0 -It tcp -Il 1060 -If 2 -Ii 21 -Iv 30 -Pn tcp -Ps 9 -Pa 0 -Pf 0 -Po 0 
s -t 0.753902152 -Hs 1 -Hd -2 -Ni 1 -Nx 6.27 -Ny 4.18 -Nz 0.00 -Ne -1.000000 -Nl AGT -Nw --- -Ma 0 -Md 0 -Ms 0 -Mt 0 -Is 1.0 -Id 0.0 -It ack -Il 40 -If 2 -Ii 24 -Iv 32 -Pn tcp -Ps 9 -Pa 0 -Pf 0 -Po 0 
r -t 0.753902152 -Hs 1 -Hd -2 -Ni 1 -Nx 6.27 -Ny 4.18 -Nz 0.00 -Ne -1.000000 -Nl RTR -Nw --- -Ma 0 -Md 0 -Ms 0 -Mt 0 -Is 1.0 -Id 0.0 -It ack -Il 40 -If 2 -Ii 24 -Iv 32 -Pn tcp -Ps 9 -Pa 0 -Pf 0 -Po 0 
s -t 0.753902152 -Hs 1 -Hd 0 -Ni 1 -Nx 6.27 -Ny 4.18 -Nz 0.00 -Ne -1.000000 -Nl RTR -Nw --- -Ma 0 -Md 0 -Ms 0 -Mt 0 -Is 1.0 -Id 0.0 -It ack -Il 60 -If 2 -Ii 24 -Iv 30 -Pn tcp -Ps 9 -Pa 0 -Pf 0 -Po 0 
s -t 0.754427152 -Hs 1 -Hd 0 -Ni 1 -Nx 6.28 -Ny 4.18 -Nz 0.00 -Ne -1.000000 -Nl MAC -Nw --- -Ma 0 -Md 1000000 -Ms 8 -Mt 0 -Is 1.0 -Id 0.0 -It ack -Il 60 -If 2 -Ii 24 -Iv 30 -Pn tcp -Ps 9 -Pa 0 -Pf 0 -Po 0 